Structure from extended XYZ

3200 atoms
2 atom types

0.0000000000 139.3709716797 xlo xhi
0.0000000000 120.6987927455 ylo yhi
0.0000000000 20.7558555603 zlo zhi
-69.6855019119 0.0000000000 0.0000000000 xy xz yz

Masses

1 51.996000 # Cr
2 126.904000 # I

Atoms # spin

1 1       5.8132600028       0.6670061513       6.9186187207  -0.390   0.616  -0.684   3.000
2 1       2.3289849072       6.7019457885       6.9186187207  -0.562   0.563  -0.606   3.000
3 1      -1.1552899794      12.7368850637       6.9186187207   0.013   0.335  -0.942   3.000
4 1      -4.6395654234      18.7718253045       6.9186187207  -0.010   0.717   0.697   3.000
5 1      -8.1238403099      24.8067645797       6.9186187207   0.822  -0.099   0.561   3.000
6 1     -11.6081162417      30.8417056653       6.9186187207   0.713  -0.448  -0.540   3.000
7 1     -15.0923900830      36.8766431300       6.9186187207   0.558   0.360  -0.748   3.000
8 1     -18.5766660148      42.9115842157       6.9186187207  -0.389   0.473  -0.790   3.000
9 1     -22.0609398561      48.9465216804       6.9186187207   0.951   0.006   0.309   3.000
10 1     -25.5452157879      54.9814627660       6.9186187207  -0.514   0.610  -0.603   3.000
11 1     -29.0294896292      61.0164002307       6.9186187207  -0.124   0.441  -0.889   3.000
12 1     -32.5137655610      67.0513413164       6.9186187207   0.263   0.809   0.526   3.000
13 1     -35.9980414928      73.0862824021       6.9186187207   0.730  -0.614   0.300   3.000
14 1     -39.4823174246      79.1212234877       6.9186187207  -0.424   0.304  -0.853   3.000
15 1     -42.9665933564      85.1561645734       6.9186187207  -0.958   0.021   0.287   3.000
16 1     -46.4508651071      91.1910984171       6.9186187207   0.447  -0.865  -0.227   3.000
17 1     -49.9351410390      97.2260395028       6.9186187207  -0.979  -0.132  -0.153   3.000
18 1     -53.4194169708     103.2609805884       6.9186187207   0.959   0.278   0.046   3.000
19 1     -56.9036929026     109.2959216741       6.9186187207   0.092  -0.004  -0.996   3.000
20 1     -60.3879688344     115.3308627598       6.9186187207   0.155   0.129  -0.979   3.000
21 1      12.7818081686       0.6670061513       6.9186187207  -0.439  -0.776   0.453   3.000
22 1       9.2975330730       6.7019457885       6.9186187207  -0.266  -0.952   0.150   3.000
23 1       5.8132581865      12.7368850637       6.9186187207  -0.037  -0.982  -0.183   3.001
24 1       2.3289827425      18.7718253045       6.9186187207   0.250  -0.525   0.814   3.000
25 1      -1.1552921441      24.8067645797       6.9186187207  -0.760  -0.450   0.469   3.000
26 1      -4.6395680759      30.8417056653       6.9186187207  -0.745   0.661   0.086   3.000
27 1      -8.1238419171      36.8766431300       6.9186187207   0.749   0.608   0.264   3.000
28 1     -11.6081178490      42.9115842157       6.9186187207   0.663   0.747   0.058   3.000
29 1     -15.0923916902      48.9465216804       6.9186187207  -0.261   0.951   0.163   2.999
30 1     -18.5766676220      54.9814627660       6.9186187207  -0.265  -0.962   0.057   3.000
31 1     -22.0609414633      61.0164002307       6.9186187207  -0.014  -0.314  -0.949   3.000
32 1     -25.5452173951      67.0513413164       6.9186187207   0.489  -0.027   0.872   3.000
33 1     -29.0294933269      73.0862824021       6.9186187207  -0.285   0.537  -0.794   3.000
34 1     -32.5137692587      79.1212234877       6.9186187207  -0.663  -0.484  -0.572   3.000
35 1     -35.9980451906      85.1561645734       6.9186187207   0.880  -0.091   0.467   3.000
36 1     -39.4823169413      91.1910984171       6.9186187207  -0.340   0.453   0.824   3.000
37 1     -42.9665928731      97.2260395028       6.9186187207  -0.006  -0.918   0.397   3.001
38 1     -46.4508688049     103.2609805884       6.9186187207   0.717   0.683  -0.140   3.000
39 1     -49.9351447367     109.2959216741       6.9186187207   0.305  -0.767   0.565   3.000
40 1     -53.4194206685     115.3308627598       6.9186187207  -0.215   0.147  -0.966   3.000
41 1      19.7503563345       0.6670061513       6.9186187207   0.580   0.008   0.814   3.000
42 1      16.2660812389       6.7019457885       6.9186187207  -0.224  -0.076  -0.972   3.000
43 1      12.7818063524      12.7368850637       6.9186187207   0.574  -0.537  -0.618   3.000
44 1       9.2975309084      18.7718253045       6.9186187207  -0.347   0.869  -0.354   3.000
45 1       5.8132560218      24.8067645797       6.9186187207  -0.666   0.277  -0.692   2.999
46 1       2.3289800900      30.8417056653       6.9186187207  -0.164  -0.573  -0.803   3.000
47 1      -1.1552937513      36.8766431300       6.9186187207   0.412  -0.702  -0.581   3.000
48 1      -4.6395696831      42.9115842157       6.9186187207  -0.479   0.814   0.328   3.001
49 1      -8.1238435243      48.9465216804       6.9186187207  -0.048   0.812   0.582   3.000
50 1     -11.6081194562      54.9814627660       6.9186187207  -0.492  -0.647  -0.583   3.000
51 1     -15.0923932974      61.0164002307       6.9186187207   0.860  -0.240  -0.451   3.000
52 1     -18.5766692292      67.0513413164       6.9186187207  -0.094  -0.292   0.952   3.000
53 1     -22.0609451611      73.0862824021       6.9186187207  -0.743   0.315   0.590   3.000
54 1     -25.5452210929      79.1212234877       6.9186187207   0.856   0.510   0.087   3.000
55 1     -29.0294970247      85.1561645734       6.9186187207   0.846   0.092  -0.526   3.000
56 1     -32.5137687754      91.1910984171       6.9186187207   0.591   0.618  -0.518   3.000
57 1     -35.9980447072      97.2260395028       6.9186187207   0.947   0.031  -0.318   3.000
58 1     -39.4823206390     103.2609805884       6.9186187207   0.015  -0.915  -0.402   3.000
59 1     -42.9665965709     109.2959216741       6.9186187207  -0.256  -0.925   0.281   3.000
60 1     -46.4508725027     115.3308627598       6.9186187207  -0.018   0.815   0.579   3.000
61 1      26.7189065909       0.6670061513       6.9186187207   0.788  -0.375   0.489   3.000
62 1      23.2346314954       6.7019457885       6.9186187207   0.270  -0.962   0.053   3.000
63 1      19.7503566088      12.7368850637       6.9186187207   0.083   0.699   0.711   3.000
64 1      16.2660811648      18.7718253045       6.9186187207  -0.336   0.387   0.858   3.000
65 1      12.7818062783      24.8067645797       6.9186187207   0.867   0.489  -0.095   3.000
66 1       9.2975303464      30.8417056653       6.9186187207  -0.961   0.204  -0.187   3.000
67 1       5.8132565052      36.8766431300       6.9186187207  -0.936   0.209  -0.284   3.000
68 1       2.3289805734      42.9115842157       6.9186187207   0.507  -0.076  -0.858   3.000
69 1      -1.1552932679      48.9465216804       6.9186187207  -0.534   0.566   0.628   3.000
70 1      -4.6395691997      54.9814627660       6.9186187207  -0.005   0.928  -0.373   3.000
71 1      -8.1238430410      61.0164002307       6.9186187207  -0.114   0.026  -0.993   3.000
72 1     -11.6081189728      67.0513413164       6.9186187207   0.099   0.977   0.190   3.000
73 1     -15.0923949046      73.0862824021       6.9186187207   0.070  -0.600   0.797   3.000
74 1     -18.5766708364      79.1212234877       6.9186187207   0.878  -0.178   0.445   3.000
75 1     -22.0609467683      85.1561645734       6.9186187207  -0.327  -0.092   0.941   3.000
76 1     -25.5452185190      91.1910984171       6.9186187207  -0.504   0.669  -0.546   3.000
77 1     -29.0294944508      97.2260395028       6.9186187207   0.114  -0.063  -0.991   3.000
78 1     -32.5137703826     103.2609805884       6.9186187207  -0.188   0.417  -0.889   3.000
79 1     -35.9980463144     109.2959216741       6.9186187207   0.499  -0.717  -0.486   3.000
80 1     -39.4823222462     115.3308627598       6.9186187207   0.242   0.359   0.902   3.000
81 1      33.6874547568       0.6670061513       6.9186187207  -0.573   0.779   0.253   3.000
82 1      30.2031796612       6.7019457885       6.9186187207  -0.601   0.529  -0.599   3.000
83 1      26.7189047747      12.7368850637       6.9186187207  -0.741  -0.640  -0.205   3.000
84 1      23.2346293307      18.7718253045       6.9186187207  -0.158   0.000   0.987   3.000
85 1      19.7503544441      24.8067645797       6.9186187207  -0.536  -0.653  -0.535   3.000
86 1      16.2660785123      30.8417056653       6.9186187207  -0.988   0.154  -0.022   3.000
87 1      12.7818046710      36.8766431300       6.9186187207   0.906  -0.108   0.410   3.000
88 1       9.2975287392      42.9115842157       6.9186187207   0.890   0.191   0.414   3.000
89 1       5.8132548980      48.9465216804       6.9186187207   0.215  -0.381  -0.899   3.000
90 1       2.3289789662      54.9814627660       6.9186187207  -0.645   0.372  -0.668   3.000
91 1      -1.1552948751      61.0164002307       6.9186187207  -0.796  -0.310  -0.520   3.000
92 1      -4.6395708069      67.0513413164       6.9186187207  -0.477  -0.792   0.381   3.000
93 1      -8.1238467387      73.0862824021       6.9186187207   0.452  -0.888  -0.077   3.000
94 1     -11.6081226706      79.1212234877       6.9186187207   0.366   0.766   0.529   3.000
95 1     -15.0923986024      85.1561645734       6.9186187207   0.472   0.849   0.236   3.000
96 1     -18.5766703531      91.1910984171       6.9186187207  -0.005   0.989  -0.149   3.000
97 1     -22.0609462849      97.2260395028       6.9186187207   0.650   0.045   0.758   3.000
98 1     -25.5452222167     103.2609805884       6.9186187207  -0.766   0.111   0.633   3.000
99 1     -29.0294981485     109.2959216741       6.9186187207   0.858   0.250  -0.449   3.000
100 1     -32.5137740804     115.3308627598       6.9186187207   0.138  -0.491  -0.860   3.000
101 1      40.6560029227       0.6670061513       6.9186187207   0.842  -0.467   0.272   3.000
102 1      37.1717278271       6.7019457885       6.9186187207  -0.243   0.426  -0.871   3.000
103 1      33.6874529406      12.7368850637       6.9186187207  -0.039   0.565   0.824   3.000
104 1      30.2031774965      18.7718253045       6.9186187207  -0.847  -0.392  -0.359   3.000
105 1      26.7189026100      24.8067645797       6.9186187207   0.571   0.463   0.677   3.000
106 1      23.2346266782      30.8417056653       6.9186187207  -0.590   0.357  -0.724   3.000
107 1      19.7503528369      36.8766431300       6.9186187207   0.712   0.073  -0.698   3.001
108 1      16.2660769051      42.9115842157       6.9186187207  -0.857  -0.132   0.499   3.000
109 1      12.7818030638      48.9465216804       6.9186187207  -0.387  -0.585  -0.713   3.000
110 1       9.2975271320      54.9814627660       6.9186187207  -0.878  -0.124   0.462   3.000
111 1       5.8132532908      61.0164002307       6.9186187207  -0.091   0.046   0.995   3.000
112 1       2.3289773589      67.0513413164       6.9186187207   0.199  -0.879  -0.434   3.000
113 1      -1.1552985729      73.0862824021       6.9186187207  -0.369  -0.591  -0.717   3.000
114 1      -4.6395745047      79.1212234877       6.9186187207  -0.387  -0.163  -0.908   3.000
115 1      -8.1238504365      85.1561645734       6.9186187207  -0.263  -0.664  -0.700   3.000
116 1     -11.6081221872      91.1910984171       6.9186187207  -0.604   0.674  -0.425   3.000
117 1     -15.0923981190      97.2260395028       6.9186187207  -0.051   0.137   0.989   3.000
118 1     -18.5766740508     103.2609805884       6.9186187207   0.484   0.430  -0.762   3.000
119 1     -22.0609499827     109.2959216741       6.9186187207  -0.866  -0.051   0.498   3.001
120 1     -25.5452259145     115.3308627598       6.9186187207  -0.489   0.756   0.435   3.000
121 1      47.6245531791       0.6670061513       6.9186187207  -0.505   0.694   0.513   3.000
122 1      44.1402780835       6.7019457885       6.9186187207   0.046   0.146   0.988   3.000
123 1      40.6560031970      12.7368850637       6.9186187207   0.808   0.274  -0.522   3.000
124 1      37.1717277530      18.7718253045       6.9186187207  -0.392   0.598  -0.699   3.000
125 1      33.6874528664      24.8067645797       6.9186187207   0.905  -0.233  -0.355   3.000
126 1      30.2031769346      30.8417056653       6.9186187207   0.262  -0.517  -0.815   3.000
127 1      26.7189030934      36.8766431300       6.9186187207   0.081  -0.310  -0.947   3.000
128 1      23.2346271615      42.9115842157       6.9186187207   0.405  -0.478   0.780   3.000
129 1      19.7503533203      48.9465216804       6.9186187207  -0.927   0.231  -0.295   3.000
130 1      16.2660773885      54.9814627660       6.9186187207   0.850   0.394   0.350   3.000
131 1      12.7818035472      61.0164002307       6.9186187207   0.450   0.759  -0.471   3.000
132 1       9.2975276154      67.0513413164       6.9186187207  -0.391   0.135  -0.911   3.000
133 1       5.8132516836      73.0862824021       6.9186187207  -0.168   0.899   0.405   3.000
134 1       2.3289757517      79.1212234877       6.9186187207   0.419   0.157   0.894   3.000
135 1      -1.1553001801      85.1561645734       6.9186187207  -0.555  -0.798  -0.233   3.000
136 1      -4.6395719308      91.1910984171       6.9186187207  -0.832  -0.555  -0.016   3.000
137 1      -8.1238478626      97.2260395028       6.9186187207  -0.095  -0.128   0.987   3.000
138 1     -11.6081237944     103.2609805884       6.9186187207   0.100   0.695   0.712   3.000
139 1     -15.0923997262     109.2959216741       6.9186187207  -0.248  -0.945  -0.214   3.000
140 1     -18.5766756581     115.3308627598       6.9186187207   0.631  -0.506   0.588   3.000
141 1      54.5930992544       0.6670061513       6.9186187207   0.070  -0.569  -0.819   2.999
142 1      51.1088241588       6.7019457885       6.9186187207  -0.330  -0.528  -0.782   3.000
143 1      47.6245492723      12.7368850637       6.9186187207   0.869   0.276  -0.410   3.000
144 1      44.1402738283      18.7718253045       6.9186187207   0.830  -0.330   0.449   3.000
145 1      40.6559989417      24.8067645797       6.9186187207  -0.987   0.158  -0.041   3.000
146 1      37.1717230099      30.8417056653       6.9186187207   0.294   0.884  -0.364   3.000
147 1      33.6874491687      36.8766431300       6.9186187207  -0.916   0.312  -0.252   3.000
148 1      30.2031732368      42.9115842157       6.9186187207  -0.641  -0.717  -0.275   3.000
149 1      26.7188993956      48.9465216804       6.9186187207   0.805  -0.429   0.410   3.000
150 1      23.2346234638      54.9814627660       6.9186187207   0.850   0.309  -0.427   3.000
151 1      19.7503496225      61.0164002307       6.9186187207   0.912  -0.410  -0.016   3.000
152 1      16.2660736907      67.0513413164       6.9186187207   0.741   0.671  -0.008   3.000
153 1      12.7817977589      73.0862824021       6.9186187207   0.854  -0.445   0.270   3.001
154 1       9.2975218270      79.1212234877       6.9186187207   0.778  -0.483   0.401   3.000
155 1       5.8132458952      85.1561645734       6.9186187207   0.494   0.704   0.510   2.999
156 1       2.3289741445      91.1910984171       6.9186187207   0.556  -0.201  -0.807   3.000
157 1      -1.1553017873      97.2260395028       6.9186187207   0.626   0.374  -0.684   2.999
158 1      -4.6395777191     103.2609805884       6.9186187207   0.048   0.981  -0.187   3.000
159 1      -8.1238536509     109.2959216741       6.9186187207   0.097  -0.952   0.289   3.000
160 1     -11.6081295827     115.3308627598       6.9186187207  -0.543   0.355   0.761   3.000
161 1      61.5616495109       0.6670061513       6.9186187207  -0.022   0.724  -0.689   3.000
162 1      58.0773744153       6.7019457885       6.9186187207  -0.255  -0.672  -0.695   2.999
163 1      54.5930995287      12.7368850637       6.9186187207  -0.638   0.579   0.508   3.000
164 1      51.1088240847      18.7718253045       6.9186187207   0.112   0.789   0.604   3.000
165 1      47.6245491982      24.8067645797       6.9186187207  -0.610   0.674  -0.416   3.000
166 1      44.1402732664      30.8417056653       6.9186187207   0.935   0.356  -0.012   2.999
167 1      40.6559994251      36.8766431300       6.9186187207  -0.098  -0.577   0.811   3.000
168 1      37.1717234933      42.9115842157       6.9186187207   0.213   0.773  -0.597   3.000
169 1      33.6874496520      48.9465216804       6.9186187207  -0.612  -0.555  -0.563   3.000
170 1      30.2031737202      54.9814627660       6.9186187207   0.550   0.709  -0.441   3.000
171 1      26.7188998789      61.0164002307       6.9186187207   0.641  -0.736  -0.216   3.000
172 1      23.2346239471      67.0513413164       6.9186187207  -0.833   0.095  -0.545   3.000
173 1      19.7503480153      73.0862824021       6.9186187207   0.993   0.116   0.010   3.001
174 1      16.2660720835      79.1212234877       6.9186187207  -0.284   0.933   0.223   3.000
175 1      12.7817961517      85.1561645734       6.9186187207   0.273  -0.343  -0.899   3.000
176 1       9.2975244010      91.1910984171       6.9186187207  -0.154   0.965  -0.212   3.000
177 1       5.8132484692      97.2260395028       6.9186187207  -0.953   0.166  -0.253   3.000
178 1       2.3289725373     103.2609805884       6.9186187207  -0.375   0.925  -0.070   2.999
179 1      -1.1553033945     109.2959216741       6.9186187207   0.221   0.895  -0.387   3.000
180 1      -4.6395793263     115.3308627598       6.9186187207   0.872   0.489  -0.034   3.000
181 1      68.5301955862       0.6670061513       6.9186187207   0.317   0.584   0.747   3.000
182 1      65.0459204906       6.7019457885       6.9186187207  -0.832  -0.518   0.198   3.000
183 1      61.5616456040      12.7368850637       6.9186187207  -0.318  -0.934  -0.160   3.000
184 1      58.0773701600      18.7718253045       6.9186187207  -0.768  -0.401  -0.499   3.000
185 1      54.5930952735      24.8067645797       6.9186187207   0.529  -0.619   0.580   3.000
186 1      51.1088193417      30.8417056653       6.9186187207  -0.086   0.351  -0.933   3.000
187 1      47.6245455004      36.8766431300       6.9186187207  -0.082  -0.984  -0.159   3.000
188 1      44.1402695686      42.9115842157       6.9186187207   0.733  -0.429  -0.527   2.999
189 1      40.6559957273      48.9465216804       6.9186187207   0.209   0.176   0.962   3.000
190 1      37.1717197955      54.9814627660       6.9186187207  -0.453   0.717   0.530   3.000
191 1      33.6874459543      61.0164002307       6.9186187207   0.342   0.441   0.830   3.000
192 1      30.2031700224      67.0513413164       6.9186187207  -0.638   0.603   0.479   3.000
193 1      26.7188940906      73.0862824021       6.9186187207   0.006   0.782   0.623   3.000
194 1      23.2346181588      79.1212234877       6.9186187207  -0.962   0.230   0.147   3.000
195 1      19.7503422270      85.1561645734       6.9186187207  -0.359  -0.031   0.933   3.000
196 1      16.2660704763      91.1910984171       6.9186187207  -0.952  -0.085   0.294   3.000
197 1      12.7817945445      97.2260395028       6.9186187207   0.962   0.153  -0.225   3.000
198 1       9.2975186126     103.2609805884       6.9186187207  -0.809  -0.269  -0.522   3.000
199 1       5.8132426808     109.2959216741       6.9186187207  -0.212   0.973  -0.090   2.999
200 1       2.3289667490     115.3308627598       6.9186187207  -0.894  -0.321   0.313   3.000
201 1      75.4987416615       0.6670061513       6.9186187207   0.679  -0.166   0.715   3.000
202 1      72.0144665659       6.7019457885       6.9186187207   0.394   0.598   0.698   3.000
203 1      68.5301916794      12.7368850637       6.9186187207   0.814   0.035   0.579   3.000
204 1      65.0459162353      18.7718253045       6.9186187207  -0.278  -0.874   0.398   3.000
205 1      61.5616413488      24.8067645797       6.9186187207  -0.893   0.357  -0.273   3.000
206 1      58.0773654170      30.8417056653       6.9186187207   0.452   0.867   0.212   3.000
207 1      54.5930915757      36.8766431300       6.9186187207   0.745  -0.657  -0.120   3.000
208 1      51.1088156439      42.9115842157       6.9186187207   0.252  -0.155   0.955   3.000
209 1      47.6245418026      48.9465216804       6.9186187207  -0.544   0.817   0.190   3.000
210 1      44.1402658708      54.9814627660       6.9186187207   0.395  -0.917  -0.061   3.000
211 1      40.6559920296      61.0164002307       6.9186187207  -0.055   0.883  -0.467   3.000
212 1      37.1717160977      67.0513413164       6.9186187207  -0.891   0.403   0.210   3.000
213 1      33.6874401659      73.0862824021       6.9186187207   0.289   0.361   0.886   3.000
214 1      30.2031642341      79.1212234877       6.9186187207  -0.364   0.921   0.136   3.000
215 1      26.7188883023      85.1561645734       6.9186187207   0.504  -0.444   0.741   3.000
216 1      23.2346165516      91.1910984171       6.9186187207   0.093   0.909   0.407   3.000
217 1      19.7503406198      97.2260395028       6.9186187207   0.517  -0.134   0.846   3.000
218 1      16.2660646879     103.2609805884       6.9186187207   0.713  -0.157   0.684   3.000
219 1      12.7817887561     109.2959216741       6.9186187207   0.276  -0.461  -0.844   3.000
220 1       9.2975128243     115.3308627598       6.9186187207   0.469  -0.658  -0.590   3.000
221 1      82.4672919179       0.6670061513       6.9186187207  -0.066   0.764  -0.642   3.000
222 1      78.9830168223       6.7019457885       6.9186187207  -0.319   0.912   0.259   3.000
223 1      75.4987419358      12.7368850637       6.9186187207  -0.980   0.093   0.178   3.000
224 1      72.0144664918      18.7718253045       6.9186187207  -0.353  -0.049  -0.934   3.000
225 1      68.5301916052      24.8067645797       6.9186187207  -0.979   0.135   0.154   3.000
226 1      65.0459156734      30.8417056653       6.9186187207  -0.826  -0.314   0.468   3.000
227 1      61.5616418322      36.8766431300       6.9186187207  -0.806   0.590  -0.046   3.000
228 1      58.0773659003      42.9115842157       6.9186187207  -0.410  -0.588  -0.698   3.000
229 1      54.5930920591      48.9465216804       6.9186187207   0.600  -0.470  -0.647   3.000
230 1      51.1088161273      54.9814627660       6.9186187207   0.069   0.934  -0.351   3.000
231 1      47.6245422860      61.0164002307       6.9186187207  -0.539  -0.797  -0.272   2.999
232 1      44.1402663542      67.0513413164       6.9186187207   0.903  -0.348  -0.254   3.000
233 1      40.6559904224      73.0862824021       6.9186187207   0.087  -0.360  -0.929   3.000
234 1      37.1717144905      79.1212234877       6.9186187207   0.320  -0.922  -0.216   3.000
235 1      33.6874385587      85.1561645734       6.9186187207  -0.298   0.756   0.582   3.000
236 1      30.2031668080      91.1910984171       6.9186187207   0.861   0.259  -0.437   3.000
237 1      26.7188908762      97.2260395028       6.9186187207   0.657   0.743  -0.129   3.000
238 1      23.2346149444     103.2609805884       6.9186187207   0.195  -0.055  -0.979   2.999
239 1      19.7503390126     109.2959216741       6.9186187207  -0.924   0.375   0.072   3.000
240 1      16.2660630807     115.3308627598       6.9186187207   0.336   0.743  -0.579   3.000
241 1      89.4358421744       0.6670061513       6.9186187207   0.746   0.493  -0.447   3.000
242 1      85.9515670788       6.7019457885       6.9186187207   0.537   0.842  -0.046   3.000
243 1      82.4672921922      12.7368850637       6.9186187207   0.026  -0.841  -0.541   3.000
244 1      78.9830167482      18.7718253045       6.9186187207   0.730   0.103   0.675   3.000
245 1      75.4987418617      24.8067645797       6.9186187207   0.802   0.178  -0.571   3.000
246 1      72.0144659298      30.8417056653       6.9186187207   0.784   0.607  -0.131   3.000
247 1      68.5301920886      36.8766431300       6.9186187207   0.013  -0.803   0.595   3.000
248 1      65.0459161568      42.9115842157       6.9186187207  -0.646  -0.749  -0.146   3.000
249 1      61.5616423155      48.9465216804       6.9186187207  -0.504   0.857   0.111   3.000
250 1      58.0773663837      54.9814627660       6.9186187207   0.800  -0.388   0.458   3.000
251 1      54.5930925424      61.0164002307       6.9186187207  -0.967   0.117  -0.228   3.000
252 1      51.1088166106      67.0513413164       6.9186187207   0.911  -0.397  -0.114   2.999
253 1      47.6245406788      73.0862824021       6.9186187207   0.284   0.950  -0.128   3.000
254 1      44.1402647470      79.1212234877       6.9186187207  -0.160  -0.189   0.969   2.999
255 1      40.6559888152      85.1561645734       6.9186187207   0.812  -0.425   0.401   3.000
256 1      37.1717170645      91.1910984171       6.9186187207  -0.791  -0.041   0.610   3.000
257 1      33.6874411326      97.2260395028       6.9186187207   0.071   0.518  -0.852   2.999
258 1      30.2031652008     103.2609805884       6.9186187207  -0.953  -0.166   0.254   3.000
259 1      26.7188892690     109.2959216741       6.9186187207   0.900   0.414   0.137   3.000
260 1      23.2346133372     115.3308627598       6.9186187207  -0.176  -0.546   0.819   3.000
261 1      96.4043924308       0.6670061513       6.9186187207  -0.727  -0.641  -0.246   3.000
262 1      92.9201173352       6.7019457885       6.9186187207   0.467   0.879   0.097   3.000
263 1      89.4358424487      12.7368850637       6.9186187207  -0.833  -0.186  -0.521   3.000
264 1      85.9515670046      18.7718253045       6.9186187207   0.927   0.175  -0.332   3.000
265 1      82.4672921181      24.8067645797       6.9186187207   0.610  -0.346  -0.713   3.000
266 1      78.9830161863      30.8417056653       6.9186187207   0.182  -0.429  -0.885   2.999
267 1      75.4987423450      36.8766431300       6.9186187207   0.168  -0.317  -0.933   3.000
268 1      72.0144664132      42.9115842157       6.9186187207  -0.584   0.652   0.484   3.001
269 1      68.5301925720      48.9465216804       6.9186187207  -0.163  -0.791  -0.590   3.000
270 1      65.0459166401      54.9814627660       6.9186187207   0.208   0.168   0.964   3.000
271 1      61.5616427989      61.0164002307       6.9186187207  -0.051  -0.987   0.150   3.000
272 1      58.0773668671      67.0513413164       6.9186187207   0.369   0.814   0.448   3.000
273 1      54.5930909352      73.0862824021       6.9186187207  -0.475  -0.560   0.679   3.001
274 1      51.1088150034      79.1212234877       6.9186187207   0.560  -0.790   0.250   3.000
275 1      47.6245390716      85.1561645734       6.9186187207  -0.314  -0.449  -0.836   3.000
276 1      44.1402673209      91.1910984171       6.9186187207  -0.580  -0.743  -0.335   3.000
277 1      40.6559913891      97.2260395028       6.9186187207  -0.657   0.743  -0.128   3.000
278 1      37.1717154573     103.2609805884       6.9186187207  -0.967   0.097   0.234   3.000
279 1      33.6874395254     109.2959216741       6.9186187207  -0.108   0.404   0.908   3.000
280 1      30.2031635936     115.3308627598       6.9186187207  -0.423   0.351   0.835   3.000
281 1     103.3729426872       0.6670061513       6.9186187207  -0.890  -0.257   0.377   3.000
282 1      99.8886675916       6.7019457885       6.9186187207   0.557  -0.710  -0.430   3.000
283 1      96.4043927051      12.7368850637       6.9186187207   0.152   0.078   0.985   3.000
284 1      92.9201172611      18.7718253045       6.9186187207  -0.401   0.910   0.105   3.000
285 1      89.4358423745      24.8067645797       6.9186187207  -0.484   0.495   0.721   3.000
286 1      85.9515664427      30.8417056653       6.9186187207  -0.636  -0.535  -0.556   3.000
287 1      82.4672926015      36.8766431300       6.9186187207  -0.014   0.769   0.639   3.000
288 1      78.9830166696      42.9115842157       6.9186187207   0.352   0.746  -0.566   3.000
289 1      75.4987428284      48.9465216804       6.9186187207   0.301   0.111  -0.947   3.000
290 1      72.0144668966      54.9814627660       6.9186187207   0.079   0.403  -0.912   3.000
291 1      68.5301930553      61.0164002307       6.9186187207   0.240   0.819   0.522   3.000
292 1      65.0459171235      67.0513413164       6.9186187207  -0.044   0.870  -0.490   3.000
293 1      61.5616411917      73.0862824021       6.9186187207  -0.800   0.137   0.584   3.000
294 1      58.0773652598      79.1212234877       6.9186187207  -0.064  -0.690  -0.721   3.000
295 1      54.5930893280      85.1561645734       6.9186187207   0.303   0.632  -0.713   3.000
296 1      51.1088175773      91.1910984171       6.9186187207  -0.223   0.596   0.772   3.000
297 1      47.6245416455      97.2260395028       6.9186187207   0.589   0.413  -0.694   3.000
298 1      44.1402657137     103.2609805884       6.9186187207  -0.892  -0.141   0.429   3.000
299 1      40.6559897819     109.2959216741       6.9186187207  -0.146   0.463  -0.874   3.000
300 1      37.1717138501     115.3308627598       6.9186187207   0.688  -0.398  -0.607   3.000
301 1     110.3414845814       0.6670061513       6.9186187207   0.520   0.412   0.749   3.000
302 1     106.8572094858       6.7019457885       6.9186187207  -0.170  -0.907  -0.385   3.000
303 1     103.3729345993      12.7368850637       6.9186187207   0.942   0.226  -0.248   3.000
304 1      99.8886591553      18.7718253045       6.9186187207   0.216   0.921   0.325   3.000
305 1      96.4043842687      24.8067645797       6.9186187207  -0.084  -0.974  -0.212   3.000
306 1      92.9201083369      30.8417056653       6.9186187207   0.092  -0.985  -0.147   3.000
307 1      89.4358344956      36.8766431300       6.9186187207  -0.359   0.570  -0.739   3.000
308 1      85.9515585638      42.9115842157       6.9186187207  -0.720   0.104   0.686   3.000
309 1      82.4672847226      48.9465216804       6.9186187207   0.764   0.313   0.564   3.000
310 1      78.9830087907      54.9814627660       6.9186187207  -0.570   0.541   0.619   3.000
311 1      75.4987349495      61.0164002307       6.9186187207  -0.180  -0.813  -0.554   3.000
312 1      72.0144590177      67.0513413164       6.9186187207  -0.202  -0.334  -0.921   3.000
313 1      68.5301830858      73.0862824021       6.9186187207   0.698   0.206   0.686   3.000
314 1      65.0459071540      79.1212234877       6.9186187207  -0.513   0.756  -0.406   3.000