LAMMPS data file via write_data, version 2 Aug 2023, timestep = 193, units = metal

3200 atoms
2 atom types

0 139.3709716797 xlo xhi
0 120.6987927455 ylo yhi
0 20.7558555603 zlo zhi
-69.6855019119 0 0 xy xz yz

Masses

1 51.996
2 126.904

Atoms # spin

801 2 1.0911370777999998 0.5352291405 5.359216120000001 0 0 1 0 0 0 0
2801 2 4.8091468658 2.6789535186 5.3483793632 0 0 1 0 0 0 0
821 2 8.0596855224 0.5352291405 5.359216120000001 0 0 1 0 0 0 0
2821 2 11.777695589099995 2.6789535186 5.3483793632 0 0 1 0 0 0 0
841 2 15.028234245799995 0.5352291405 5.359216120000001 0 0 1 0 0 0 0
2841 2 18.746244730600015 2.6789535186 5.3483793632 0 0 1 0 0 0 0
861 2 21.996782411700007 0.5352291405 5.359216120000001 0 0 1 0 0 0 0
2861 2 25.7147928965 2.6789535186 5.3483793632 0 0 1 0 0 0 0
881 2 28.965330577500005 0.5352291405 5.359216120000001 0 0 1 0 0 0 0
2881 2 32.6833410623 2.6789535186 5.3483793632 0 0 1 0 0 0 0
901 2 35.93387874340001 0.5352291405 5.359216120000001 0 0 1 0 0 0 0
2901 2 39.65189131879997 2.6789535186 5.3483793632 0 0 1 0 0 0 0
921 2 42.9024289999 0.5352291405 5.359216120000001 0 0 1 0 0 0 0
2921 2 46.62043739409997 2.6789535186 5.3483793632 0 0 1 0 0 0 0
941 2 49.8709792563 0.5352291405 5.359216120000001 0 0 1 0 0 0 0
2941 2 53.58898765049997 2.6789535186 5.3483793632 0 0 1 0 0 0 0
961 2 56.8395253316 0.5352291405 5.359216120000001 0 0 1 0 0 0 0
2961 2 60.55753372579997 2.6789535186 5.3483793632 0 0 1 0 0 0 0
981 2 63.808075588 0.5352291405 5.359216120000001 0 0 1 0 0 0 0
2981 2 67.5260839823 2.6789535186 5.3483793632 0 0 1 0 0 0 0
1001 2 70.7766258445 0.5352291405 5.359216120000001 0 0 1 0 0 0 0
3001 2 74.4946300576 2.6789535186 5.3483793632 0 0 1 0 0 0 0
1021 2 77.7451677387 0.5352291405 5.359216120000001 0 0 1 0 0 0 0
3021 2 81.463180314 2.6789535186 5.3483793632 0 0 1 0 0 0 0
1041 2 84.71371799510001 0.5352291405 5.359216120000001 0 0 1 0 0 0 0
3041 2 88.4317305704 2.6789535186 5.3483793632 0 0 1 0 0 0 0
1061 2 91.6822682515 0.5352291405 5.359216120000001 0 0 1 0 0 0 0
3061 2 95.4002808269 2.6789535186 5.3483793632 0 0 1 0 0 0 0
1081 2 98.650818508 0.5352291405 5.359216120000001 0 0 1 0 0 0 0
3081 2 102.3688310833 2.6789535186 5.3483793632 0 0 1 0 0 0 0
1101 2 105.6193687644 0.5352291405 5.359216120000001 0 0 1 0 0 0 0
3101 2 109.3373729775 2.6789535186 5.3483793632 0 0 1 0 0 0 0
1121 2 112.5879106586 0.5352291405 5.359216120000001 0 0 1 0 0 0 0
3121 2 116.30592323390002 2.6789535186 5.3483793632 0 0 1 0 0 0 0
1141 2 119.556460915 0.5352291405 5.359216120000001 0 0 1 0 0 0 0
3141 2 123.2744734904 2.6789535186 5.3483793632 0 0 1 0 0 0 0
1161 2 126.5250111714 0.5352291405 5.359216120000001 0 0 1 0 0 0 0
3161 2 130.24302374679993 2.6789535186 5.3483793632 0 0 1 0 0 0 0
1181 2 133.4935614279 0.5352291405 5.359216120000001 0 0 1 0 0 0 0
3181 2 137.21157400319993 2.6789535186 5.3483793632 0 0 1 0 0 0 0
1601 2 1.0858503045999983 4.8280081969 5.3550036568 0 0 1 0 0 0 0
1621 2 8.054398888599998 4.8280081969 5.3550036568 0 0 1 0 0 0 0
1641 2 15.022947054499998 4.8280081969 5.3550036568 0 0 1 0 0 0 0
1661 2 21.9914952204 4.8280081969 5.3550036568 0 0 1 0 0 0 0
1681 2 28.960045476799994 4.8280081969 5.3550036568 0 0 1 0 0 0 0
1701 2 35.928593642699994 4.8280081969 5.3550036568 0 0 1 0 0 0 0
1721 2 42.897139717999984 4.8280081969 5.3550036568 0 0 1 0 0 0 0
1741 2 49.8656899744 4.8280081969 5.3550036568 0 0 1 0 0 0 0
1761 2 56.8342402308 4.8280081969 5.3550036568 0 0 1 0 0 0 0
1781 2 63.8027863062 4.8280081969 5.3550036568 0 0 1 0 0 0 0
1801 2 70.7713365626 4.8280081969 5.3550036568 0 0 1 0 0 0 0
1821 2 77.739886819 4.8280081969 5.3550036568 0 0 1 0 0 0 0
1841 2 84.70843707549999 4.8280081969 5.3550036568 0 0 1 0 0 0 0
1861 2 91.6769789696 4.8280081969 5.3550036568 0 0 1 0 0 0 0
1881 2 98.64552922609997 4.8280081969 5.3550036568 0 0 1 0 0 0 0
1901 2 105.61407948249995 4.8280081969 5.3550036568 0 0 1 0 0 0 0
1921 2 112.58262973899994 4.8280081969 5.3550036568 0 0 1 0 0 0 0
1941 2 119.55117999539995 4.8280081969 5.3550036568 0 0 1 0 0 0 0
1961 2 126.5197218896 4.8280081969 5.3550036568 0 0 1 0 0 0 0
1981 2 133.488272146 4.8280081969 5.3550036568 0 0 1 0 0 0 0
802 2 -2.393137948100004 6.5701686571 5.359216120000001 0 0 1 0 0 0 0
822 2 4.575410496499993 6.5701686571 5.359216120000001 0 0 1 0 0 0 0
842 2 11.543959219899993 6.5701686571 5.359216120000001 0 0 1 0 0 0 0
862 2 18.5125073858 6.5701686571 5.359216120000001 0 0 1 0 0 0 0
882 2 25.4810555516 6.5701686571 5.359216120000001 0 0 1 0 0 0 0
902 2 32.44960371749998 6.5701686571 5.359216120000001 0 0 1 0 0 0 0
922 2 39.41815397389999 6.5701686571 5.359216120000001 0 0 1 0 0 0 0
942 2 46.38670423039999 6.5701686571 5.359216120000001 0 0 1 0 0 0 0
962 2 53.3552503057 6.5701686571 5.359216120000001 0 0 1 0 0 0 0
982 2 60.3238005621 6.5701686571 5.359216120000001 0 0 1 0 0 0 0
1002 2 67.2923508186 6.5701686571 5.359216120000001 0 0 1 0 0 0 0
1022 2 74.2608927127 6.5701686571 5.359216120000001 0 0 1 0 0 0 0
1042 2 81.2294429692 6.5701686571 5.359216120000001 0 0 1 0 0 0 0
1062 2 88.1979932256 6.5701686571 5.359216120000001 0 0 1 0 0 0 0
1082 2 95.1665434821 6.5701686571 5.359216120000001 0 0 1 0 0 0 0
1102 2 102.1350937385 6.5701686571 5.359216120000001 0 0 1 0 0 0 0
1122 2 109.1036356327 6.5701686571 5.359216120000001 0 0 1 0 0 0 0
1142 2 116.0721858891 6.5701686571 5.359216120000001 0 0 1 0 0 0 0
1162 2 123.04073614549999 6.5701686571 5.359216120000001 0 0 1 0 0 0 0
1182 2 130.00928640199996 6.5701686571 5.359216120000001 0 0 1 0 0 0 0
1602 2 -2.398424651600002 10.8629475927 5.3550036568 0 0 1 0 0 0 0
2802 2 1.3248715610999966 8.713893518 5.3483793632 0 0 1 0 0 0 0
1622 2 4.570123932399997 10.8629475927 5.3550036568 0 0 1 0 0 0 0
2822 2 8.293420284499998 8.713893518 5.3483793632 0 0 1 0 0 0 0
1642 2 11.538672098299998 10.8629475927 5.3550036568 0 0 1 0 0 0 0
2842 2 15.261969425900006 8.713893518 5.3483793632 0 0 1 0 0 0 0
1662 2 18.50722026409999 10.8629475927 5.3550036568 0 0 1 0 0 0 0
2862 2 22.2305175918 8.713893518 5.3483793632 0 0 1 0 0 0 0
1682 2 25.475770520599994 10.8629475927 5.3550036568 0 0 1 0 0 0 0
2882 2 29.1990657577 8.713893518 5.3483793632 0 0 1 0 0 0 0
1702 2 32.4443186864 10.8629475927 5.3550036568 0 0 1 0 0 0 0
2902 2 36.16761601409999 8.713893518 5.3483793632 0 0 1 0 0 0 0
1722 2 39.41286476180003 10.8629475927 5.3550036568 0 0 1 0 0 0 0
2922 2 43.136162089399996 8.713893518 5.3483793632 0 0 1 0 0 0 0
1742 2 46.38141501820002 10.8629475927 5.3550036568 0 0 1 0 0 0 0
2942 2 50.10471234589999 8.713893518 5.3483793632 0 0 1 0 0 0 0
1762 2 53.3499652746 10.8629475927 5.3550036568 0 0 1 0 0 0 0
2962 2 57.0732584212 8.713893518 5.3483793632 0 0 1 0 0 0 0
1782 2 60.31851134990001 10.8629475927 5.3550036568 0 0 1 0 0 0 0
2982 2 64.0418086776 8.713893518 5.3483793632 0 0 1 0 0 0 0
1802 2 67.2870616064 10.8629475927 5.3550036568 0 0 1 0 0 0 0
3002 2 71.0103547529 8.713893518 5.3483793632 0 0 1 0 0 0 0
1822 2 74.2556118628 10.8629475927 5.3550036568 0 0 1 0 0 0 0
3022 2 77.9789050093 8.713893518 5.3483793632 0 0 1 0 0 0 0
1842 2 81.2241621192 10.8629475927 5.3550036568 0 0 1 0 0 0 0
3042 2 84.94745526580004 8.713893518 5.3483793632 0 0 1 0 0 0 0
1862 2 88.1927040134 10.8629475927 5.3550036568 0 0 1 0 0 0 0
3062 2 91.91600552220004 8.713893518 5.3483793632 0 0 1 0 0 0 0
1882 2 95.1612542699 10.8629475927 5.3550036568 0 0 1 0 0 0 0
3082 2 98.8845557787 8.713893518 5.3483793632 0 0 1 0 0 0 0
1902 2 102.1298045263 10.8629475927 5.3550036568 0 0 1 0 0 0 0
3102 2 105.85309767280002 8.713893518 5.3483793632 0 0 1 0 0 0 0
1922 2 109.0983547827 10.8629475927 5.3550036568 0 0 1 0 0 0 0
3122 2 112.8216479293 8.713893518 5.3483793632 0 0 1 0 0 0 0
1942 2 116.06690503920004 10.8629475927 5.3550036568 0 0 1 0 0 0 0
3142 2 119.7901981857 8.713893518 5.3483793632 0 0 1 0 0 0 0
1962 2 123.03544693330001 10.8629475927 5.3550036568 0 0 1 0 0 0 0
3162 2 126.7587484421 8.713893518 5.3483793632 0 0 1 0 0 0 0
1982 2 130.0039971898 10.8629475927 5.3550036568 0 0 1 0 0 0 0
3182 2 133.7272986986 8.713893518 5.3483793632 0 0 1 0 0 0 0
803 2 -5.8774133224000025 12.6051087772 5.359216120000001 0 0 1 0 0 0 0
823 2 1.0911351221999999 12.6051087772 5.359216120000001 0 0 1 0 0 0 0
843 2 8.059683845599999 12.6051087772 5.359216120000001 0 0 1 0 0 0 0
863 2 15.0282320114 12.6051087772 5.359216120000001 0 0 1 0 0 0 0
883 2 21.99678017729999 12.6051087772 5.359216120000001 0 0 1 0 0 0 0
903 2 28.9653283432 12.6051087772 5.359216120000001 0 0 1 0 0 0 0
923 2 35.9338785996 12.6051087772 5.359216120000001 0 0 1 0 0 0 0
943 2 42.90242885599999 12.6051087772 5.359216120000001 0 0 1 0 0 0 0
963 2 49.8709749314 12.6051087772 5.359216120000001 0 0 1 0 0 0 0
983 2 56.8395251878 12.6051087772 5.359216120000001 0 0 1 0 0 0 0
1003 2 63.80807544420001 12.6051087772 5.359216120000001 0 0 1 0 0 0 0
1023 2 70.7766173384 12.6051087772 5.359216120000001 0 0 1 0 0 0 0
1043 2 77.7451675948 12.6051087772 5.359216120000001 0 0 1 0 0 0 0
1063 2 84.7137178513 12.6051087772 5.359216120000001 0 0 1 0 0 0 0
1083 2 91.6822681077 12.6051087772 5.359216120000001 0 0 1 0 0 0 0
1103 2 98.6508183642 12.6051087772 5.359216120000001 0 0 1 0 0 0 0
1123 2 105.61936025829998 12.6051087772 5.359216120000001 0 0 1 0 0 0 0
1143 2 112.5879105148 12.6051087772 5.359216120000001 0 0 1 0 0 0 0
1163 2 119.5564607712 12.6051087772 5.359216120000001 0 0 1 0 0 0 0
1183 2 126.5250110276 12.6051087772 5.359216120000001 0 0 1 0 0 0 0
1603 2 -5.882699538099999 16.8978868679 5.3550036568 0 0 1 0 0 0 0
2803 2 -2.159403325400004 14.7488327932 5.3483793632 0 0 1 0 0 0 0
1623 2 1.0858490458999999 16.8978868679 5.3550036568 0 0 1 0 0 0 0
2823 2 4.809145397899993 14.7488327932 5.3483793632 0 0 1 0 0 0 0
1643 2 8.0543972117 16.8978868679 5.3550036568 0 0 1 0 0 0 0
2843 2 11.777694539399997 14.7488327932 5.3483793632 0 0 1 0 0 0 0
1663 2 15.0229453776 16.8978868679 5.3550036568 0 0 1 0 0 0 0
2863 2 18.7462427053 14.7488327932 5.3483793632 0 0 1 0 0 0 0
1683 2 21.991495634000003 16.8978868679 5.3550036568 0 0 1 0 0 0 0
2883 2 25.714790871099993 14.7488327932 5.3483793632 0 0 1 0 0 0 0
1703 2 28.960043799899996 16.8978868679 5.3550036568 0 0 1 0 0 0 0
2903 2 32.6833411276 14.7488327932 5.3483793632 0 0 1 0 0 0 0
1723 2 35.92858987519999 16.8978868679 5.3550036568 0 0 1 0 0 0 0
2923 2 39.6518872029 14.7488327932 5.3483793632 0 0 1 0 0 0 0
1743 2 42.8971401316 16.8978868679 5.3550036568 0 0 1 0 0 0 0
2943 2 46.6204374593 14.7488327932 5.3483793632 0 0 1 0 0 0 0
1763 2 49.86569038809999 16.8978868679 5.3550036568 0 0 1 0 0 0 0
2963 2 53.58898353459999 14.7488327932 5.3483793632 0 0 1 0 0 0 0
1783 2 56.8342364634 16.8978868679 5.3550036568 0 0 1 0 0 0 0
2983 2 60.55753379109999 14.7488327932 5.3483793632 0 0 1 0 0 0 0
1803 2 63.802786719800054 16.8978868679 5.3550036568 0 0 1 0 0 0 0
3003 2 67.5260798664 14.7488327932 5.3483793632 0 0 1 0 0 0 0
1823 2 70.7713369763 16.8978868679 5.3550036568 0 0 1 0 0 0 0
3023 2 74.4946301228 14.7488327932 5.3483793632 0 0 1 0 0 0 0
1843 2 77.7398872327 16.8978868679 5.3550036568 0 0 1 0 0 0 0
3043 2 81.4631803792 14.7488327932 5.3483793632 0 0 1 0 0 0 0
1863 2 84.7084291269 16.8978868679 5.3550036568 0 0 1 0 0 0 0
3063 2 88.43173063570002 14.7488327932 5.3483793632 0 0 1 0 0 0 0
1883 2 91.6769793833 16.8978868679 5.3550036568 0 0 1 0 0 0 0
3083 2 95.4002808921 14.7488327932 5.3483793632 0 0 1 0 0 0 0
1903 2 98.6455296398 16.8978868679 5.3550036568 0 0 1 0 0 0 0
3103 2 102.3688227863 14.7488327932 5.3483793632 0 0 1 0 0 0 0
1923 2 105.6140798962 16.8978868679 5.3550036568 0 0 1 0 0 0 0
3123 2 109.3373730427 14.7488327932 5.3483793632 0 0 1 0 0 0 0
1943 2 112.5826301526 16.8978868679 5.3550036568 0 0 1 0 0 0 0
3143 2 116.3059232992 14.7488327932 5.3483793632 0 0 1 0 0 0 0
1963 2 119.55117204680002 16.8978868679 5.3550036568 0 0 1 0 0 0 0
3163 2 123.27447355560001 14.7488327932 5.3483793632 0 0 1 0 0 0 0
1983 2 126.51972230320001 16.8978868679 5.3550036568 0 0 1 0 0 0 0
3183 2 130.243023812 14.7488327932 5.3483793632 0 0 1 0 0 0 0
804 2 -9.361688766400011 18.6400490179 5.359216120000001 0 0 1 0 0 0 0
824 2 -2.393140321800013 18.6400490179 5.359216120000001 0 0 1 0 0 0 0
844 2 4.575408401499983 18.6400490179 5.359216120000001 0 0 1 0 0 0 0
864 2 11.54395656739998 18.6400490179 5.359216120000001 0 0 1 0 0 0 0
884 2 18.512504733299984 18.6400490179 5.359216120000001 0 0 1 0 0 0 0
904 2 25.481052899199994 18.6400490179 5.359216120000001 0 0 1 0 0 0 0
924 2 32.44960315559997 18.6400490179 5.359216120000001 0 0 1 0 0 0 0
944 2 39.418153412 18.6400490179 5.359216120000001 0 0 1 0 0 0 0
964 2 46.38669948729999 18.6400490179 5.359216120000001 0 0 1 0 0 0 0
984 2 53.35524974380001 18.6400490179 5.359216120000001 0 0 1 0 0 0 0
1004 2 60.3238000002 18.6400490179 5.359216120000001 0 0 1 0 0 0 0
1024 2 67.29234189440001 18.6400490179 5.359216120000001 0 0 1 0 0 0 0
1044 2 74.2608921508 18.6400490179 5.359216120000001 0 0 1 0 0 0 0
1064 2 81.22944240729998 18.6400490179 5.359216120000001 0 0 1 0 0 0 0
1084 2 88.1979926637 18.6400490179 5.359216120000001 0 0 1 0 0 0 0
1104 2 95.1665429201 18.6400490179 5.359216120000001 0 0 1 0 0 0 0
1124 2 102.1350848143 18.6400490179 5.359216120000001 0 0 1 0 0 0 0
1144 2 109.1036350707 18.6400490179 5.359216120000001 0 0 1 0 0 0 0
1164 2 116.0721853272 18.6400490179 5.359216120000001 0 0 1 0 0 0 0
1184 2 123.04073558359997 18.6400490179 5.359216120000001 0 0 1 0 0 0 0
1604 2 -9.366975400300007 22.932827832900003 5.3550036568 0 0 1 0 0 0 0
2804 2 -5.643678212000009 20.7837720684 5.3483793632 0 0 1 0 0 0 0
1624 2 -2.398426816300013 22.932827832900003 5.3550036568 0 0 1 0 0 0 0
2824 2 1.324870511399988 20.7837720684 5.3483793632 0 0 1 0 0 0 0
1644 2 4.570121349599988 22.932827832900003 5.3550036568 0 0 1 0 0 0 0
2844 2 8.2934196529 20.7837720684 5.3483793632 0 0 1 0 0 0 0
1664 2 11.538669515499999 22.932827832900003 5.3550036568 0 0 1 0 0 0 0
2864 2 15.261967818699985 20.7837720684 5.3483793632 0 0 1 0 0 0 0
1684 2 18.507219771899997 22.932827832900003 5.3550036568 0 0 1 0 0 0 0
2884 2 22.230515984599997 20.7837720684 5.3483793632 0 0 1 0 0 0 0
1704 2 25.475767937799986 22.932827832900003 5.3550036568 0 0 1 0 0 0 0
2904 2 29.199066240999997 20.7837720684 5.3483793632 0 0 1 0 0 0 0
1724 2 32.44431401309999 22.932827832900003 5.3550036568 0 0 1 0 0 0 0
2924 2 36.1676123163 20.7837720684 5.3483793632 0 0 1 0 0 0 0
1744 2 39.41286426949998 22.932827832900003 5.3550036568 0 0 1 0 0 0 0
2944 2 43.1361625728 20.7837720684 5.3483793632 0 0 1 0 0 0 0
1764 2 46.38141452589998 22.932827832900003 5.3550036568 0 0 1 0 0 0 0
2964 2 50.1047086481 20.7837720684 5.3483793632 0 0 1 0 0 0 0
1784 2 53.3499606013 22.932827832900003 5.3550036568 0 0 1 0 0 0 0
2984 2 57.0732589045 20.7837720684 5.3483793632 0 0 1 0 0 0 0
1804 2 60.31851085769998 22.932827832900003 5.3550036568 0 0 1 0 0 0 0
3004 2 64.04180497979995 20.7837720684 5.3483793632 0 0 1 0 0 0 0
1824 2 67.28706111409998 22.932827832900003 5.3550036568 0 0 1 0 0 0 0
3024 2 71.01035523629994 20.7837720684 5.3483793632 0 0 1 0 0 0 0
1844 2 74.2556113706 22.932827832900003 5.3550036568 0 0 1 0 0 0 0
3044 2 77.97890549269994 20.7837720684 5.3483793632 0 0 1 0 0 0 0
1864 2 81.2241532647 22.932827832900003 5.3550036568 0 0 1 0 0 0 0
3064 2 84.94745574909994 20.7837720684 5.3483793632 0 0 1 0 0 0 0
1884 2 88.19270352119997 22.932827832900003 5.3550036568 0 0 1 0 0 0 0
3084 2 91.91600600559993 20.7837720684 5.3483793632 0 0 1 0 0 0 0
1904 2 95.16125377759998 22.932827832900003 5.3550036568 0 0 1 0 0 0 0
3104 2 98.88454789979998 20.7837720684 5.3483793632 0 0 1 0 0 0 0
1924 2 102.12980403409998 22.932827832900003 5.3550036568 0 0 1 0 0 0 0
3124 2 105.85309815619993 20.7837720684 5.3483793632 0 0 1 0 0 0 0
1944 2 109.09835429049998 22.932827832900003 5.3550036568 0 0 1 0 0 0 0
3144 2 112.82164841259993 20.7837720684 5.3483793632 0 0 1 0 0 0 0
1964 2 116.0668961847 22.932827832900003 5.3550036568 0 0 1 0 0 0 0
3164 2 119.7901986690999 20.7837720684 5.3483793632 0 0 1 0 0 0 0
1984 2 123.03544644109999 22.932827832900003 5.3550036568 0 0 1 0 0 0 0
3184 2 126.7587489255 20.7837720684 5.3483793632 0 0 1 0 0 0 0
805 2 -12.845963653000009 24.674988293100004 5.359216120000001 0 0 1 0 0 0 0
825 2 -5.877415208400011 24.674988293100004 5.359216120000001 0 0 1 0 0 0 0
845 2 1.0911335149999903 24.674988293100004 5.359216120000001 0 0 1 0 0 0 0
865 2 8.059681680899988 24.674988293100004 5.359216120000001 0 0 1 0 0 0 0
885 2 15.02822984669999 24.674988293100004 5.359216120000001 0 0 1 0 0 0 0
905 2 21.9967780126 24.674988293100004 5.359216120000001 0 0 1 0 0 0 0
925 2 28.965328268999993 24.674988293100004 5.359216120000001 0 0 1 0 0 0 0
945 2 35.93387852549999 24.674988293100004 5.359216120000001 0 0 1 0 0 0 0
965 2 42.90242460079996 24.674988293100004 5.359216120000001 0 0 1 0 0 0 0
985 2 49.870974857199954 24.674988293100004 5.359216120000001 0 0 1 0 0 0 0
1005 2 56.83952511369995 24.674988293100004 5.359216120000001 0 0 1 0 0 0 0
1025 2 63.80806700779996 24.674988293100004 5.359216120000001 0 0 1 0 0 0 0
1045 2 70.7766172643 24.674988293100004 5.359216120000001 0 0 1 0 0 0 0
1065 2 77.7451675207 24.674988293100004 5.359216120000001 0 0 1 0 0 0 0
1085 2 84.7137177772 24.674988293100004 5.359216120000001 0 0 1 0 0 0 0
1105 2 91.6822680336 24.674988293100004 5.359216120000001 0 0 1 0 0 0 0
1125 2 98.6508099278 24.674988293100004 5.359216120000001 0 0 1 0 0 0 0
1145 2 105.6193601842 24.674988293100004 5.359216120000001 0 0 1 0 0 0 0
1165 2 112.5879104406 24.674988293100004 5.359216120000001 0 0 1 0 0 0 0
1185 2 119.55646069709998 24.674988293100004 5.359216120000001 0 0 1 0 0 0 0
2805 2 -9.1279530985 26.8187113436 5.3483793632 0 0 1 0 0 0 0
2825 2 -2.1594043752000083 26.8187113436 5.3483793632 0 0 1 0 0 0 0
2845 2 4.809144766299999 26.8187113436 5.3483793632 0 0 1 0 0 0 0
2865 2 11.777692932199995 26.8187113436 5.3483793632 0 0 1 0 0 0 0
2885 2 18.7462410981 26.8187113436 5.3483793632 0 0 1 0 0 0 0
2905 2 25.7147913545 26.8187113436 5.3483793632 0 0 1 0 0 0 0
2925 2 32.6833374298 26.8187113436 5.3483793632 0 0 1 0 0 0 0
2945 2 39.65188768619999 26.8187113436 5.3483793632 0 0 1 0 0 0 0
2965 2 46.62043376149999 26.8187113436 5.3483793632 0 0 1 0 0 0 0
2985 2 53.588984018 26.8187113436 5.3483793632 0 0 1 0 0 0 0
3005 2 60.55753009330001 26.8187113436 5.3483793632 0 0 1 0 0 0 0
3025 2 67.5260803497 26.8187113436 5.3483793632 0 0 1 0 0 0 0
3045 2 74.4946306062 26.8187113436 5.3483793632 0 0 1 0 0 0 0
3065 2 81.4631808626 26.8187113436 5.3483793632 0 0 1 0 0 0 0
3085 2 88.43173111899998 26.8187113436 5.3483793632 0 0 1 0 0 0 0
3105 2 95.40027301319998 26.8187113436 5.3483793632 0 0 1 0 0 0 0
3125 2 102.3688232697 26.8187113436 5.3483793632 0 0 1 0 0 0 0
3145 2 109.3373735261 26.8187113436 5.3483793632 0 0 1 0 0 0 0
3165 2 116.3059237825 26.8187113436 5.3483793632 0 0 1 0 0 0 0
3185 2 123.27447403899998 26.8187113436 5.3483793632 0 0 1 0 0 0 0
806 2 -16.33023749420001 30.709925757799997 5.359216120000001 0 0 1 0 0 0 0
1605 2 -12.85125028680001 28.9677671081 5.3550036568 0 0 1 0 0 0 0
826 2 -9.361689049600015 30.709925757799997 5.359216120000001 0 0 1 0 0 0 0
1625 2 -5.882701702800011 28.9677671081 5.3550036568 0 0 1 0 0 0 0
846 2 -2.3931403263000153 30.709925757799997 5.359216120000001 0 0 1 0 0 0 0
1645 2 1.085846462999985 28.9677671081 5.3550036568 0 0 1 0 0 0 0
866 2 4.57540783959999 30.709925757799997 5.359216120000001 0 0 1 0 0 0 0
1665 2 8.054394628899999 28.9677671081 5.3550036568 0 0 1 0 0 0 0
886 2 11.543956005499986 30.709925757799997 5.359216120000001 0 0 1 0 0 0 0
1685 2 15.022944885399983 28.9677671081 5.3550036568 0 0 1 0 0 0 0
906 2 18.512504171400003 30.709925757799997 5.359216120000001 0 0 1 0 0 0 0
1705 2 21.991493051199985 28.9677671081 5.3550036568 0 0 1 0 0 0 0
926 2 25.481054427799982 30.709925757799997 5.359216120000001 0 0 1 0 0 0 0
1725 2 28.960039126499982 28.9677671081 5.3550036568 0 0 1 0 0 0 0
946 2 32.44960468419997 30.709925757799997 5.359216120000001 0 0 1 0 0 0 0
1745 2 35.928589383 28.9677671081 5.3550036568 0 0 1 0 0 0 0
966 2 39.41815075949997 30.709925757799997 5.359216120000001 0 0 1 0 0 0 0
1765 2 42.897139639399995 28.9677671081 5.3550036568 0 0 1 0 0 0 0
986 2 46.38670101599999 30.709925757799997 5.359216120000001 0 0 1 0 0 0 0
1785 2 49.86568571469995 28.9677671081 5.3550036568 0 0 1 0 0 0 0
1006 2 53.355251272399954 30.709925757799997 5.359216120000001 0 0 1 0 0 0 0
1805 2 56.83423597119999 28.9677671081 5.3550036568 0 0 1 0 0 0 0
1026 2 60.323793166599955 30.709925757799997 5.359216120000001 0 0 1 0 0 0 0
1825 2 63.80278622759997 28.9677671081 5.3550036568 0 0 1 0 0 0 0
1046 2 67.292343423 30.709925757799997 5.359216120000001 0 0 1 0 0 0 0
1845 2 70.771336484 28.9677671081 5.3550036568 0 0 1 0 0 0 0
1066 2 74.2608936795 30.709925757799997 5.359216120000001 0 0 1 0 0 0 0
1865 2 77.7398783782 28.9677671081 5.3550036568 0 0 1 0 0 0 0
1086 2 81.2294439359 30.709925757799997 5.359216120000001 0 0 1 0 0 0 0
1885 2 84.70842863459998 28.9677671081 5.3550036568 0 0 1 0 0 0 0
1106 2 88.1979941923 30.709925757799997 5.359216120000001 0 0 1 0 0 0 0
1905 2 91.6769788911 28.9677671081 5.3550036568 0 0 1 0 0 0 0
1126 2 95.1665360865 30.709925757799997 5.359216120000001 0 0 1 0 0 0 0
1925 2 98.6455291475 28.9677671081 5.3550036568 0 0 1 0 0 0 0
1146 2 102.1350863429 30.709925757799997 5.359216120000001 0 0 1 0 0 0 0
1945 2 105.614079404 28.9677671081 5.3550036568 0 0 1 0 0 0 0
1166 2 109.10363659939996 30.709925757799997 5.359216120000001 0 0 1 0 0 0 0
1965 2 112.5826212981 28.9677671081 5.3550036568 0 0 1 0 0 0 0
1186 2 116.07218685579998 30.709925757799997 5.359216120000001 0 0 1 0 0 0 0
1985 2 119.5511715546 28.9677671081 5.3550036568 0 0 1 0 0 0 0
2806 2 -12.61222903030001 32.8536524292 5.3483793632 0 0 1 0 0 0 0
2826 2 -5.6436803070000146 32.8536524292 5.3483793632 0 0 1 0 0 0 0
2846 2 1.3248688344999877 32.8536524292 5.3483793632 0 0 1 0 0 0 0
2866 2 8.293417000399984 32.8536524292 5.3483793632 0 0 1 0 0 0 0
2886 2 15.2619651662 32.8536524292 5.3483793632 0 0 1 0 0 0 0
2906 2 22.2305154227 32.8536524292 5.3483793632 0 0 1 0 0 0 0
2926 2 29.199061497999992 32.8536524292 5.3483793632 0 0 1 0 0 0 0
2946 2 36.1676117544 32.8536524292 5.3483793632 0 0 1 0 0 0 0
2966 2 43.13615782969999 32.8536524292 5.3483793632 0 0 1 0 0 0 0
2986 2 50.104708086199956 32.8536524292 5.3483793632 0 0 1 0 0 0 0
3006 2 57.073254161499996 32.8536524292 5.3483793632 0 0 1 0 0 0 0
3026 2 64.04180441789998 32.8536524292 5.3483793632 0 0 1 0 0 0 0
3046 2 71.0103546743 32.8536524292 5.3483793632 0 0 1 0 0 0 0
3066 2 77.97890493079998 32.8536524292 5.3483793632 0 0 1 0 0 0 0
3086 2 84.94745518719998 32.8536524292 5.3483793632 0 0 1 0 0 0 0
3106 2 91.91599708139998 32.8536524292 5.3483793632 0 0 1 0 0 0 0
3126 2 98.88454733779997 32.8536524292 5.3483793632 0 0 1 0 0 0 0
3146 2 105.85309759429998 32.8536524292 5.3483793632 0 0 1 0 0 0 0
3166 2 112.8216478507 32.8536524292 5.3483793632 0 0 1 0 0 0 0
3186 2 119.7901981071 32.8536524292 5.3483793632 0 0 1 0 0 0 0
807 2 -19.81451342610002 36.7448668435 5.359216120000001 0 0 1 0 0 0 0
1606 2 -16.335525173300027 35.00270638320001 5.3550036568 0 0 1 0 0 0 0
827 2 -12.845964981400021 36.7448668435 5.359216120000001 0 0 1 0 0 0 0
1626 2 -9.366976589400025 35.00270638320001 5.3550036568 0 0 1 0 0 0 0
847 2 -5.8774162581000216 36.7448668435 5.359216120000001 0 0 1 0 0 0 0
1646 2 -2.3984284235000146 35.00270638320001 5.3550036568 0 0 1 0 0 0 0
867 2 1.0911319077999764 36.7448668435 5.359216120000001 0 0 1 0 0 0 0
1666 2 4.570119742399971 35.00270638320001 5.3550036568 0 0 1 0 0 0 0
887 2 8.059680073699983 36.7448668435 5.359216120000001 0 0 1 0 0 0 0
1686 2 11.538669998799975 35.00270638320001 5.3550036568 0 0 1 0 0 0 0
907 2 15.028228239499985 36.7448668435 5.359216120000001 0 0 1 0 0 0 0
1706 2 18.507218164699967 35.00270638320001 5.3550036568 0 0 1 0 0 0 0
927 2 21.996778495999973 36.7448668435 5.359216120000001 0 0 1 0 0 0 0
1726 2 25.47576423999997 35.00270638320001 5.3550036568 0 0 1 0 0 0 0
947 2 28.965328752399994 36.7448668435 5.359216120000001 0 0 1 0 0 0 0
1746 2 32.44431449639998 35.00270638320001 5.3550036568 0 0 1 0 0 0 0
967 2 35.933874827699995 36.7448668435 5.359216120000001 0 0 1 0 0 0 0
1766 2 39.41286475289999 35.00270638320001 5.3550036568 0 0 1 0 0 0 0
987 2 42.90242508419995 36.7448668435 5.359216120000001 0 0 1 0 0 0 0
1786 2 46.38141082819996 35.00270638320001 5.3550036568 0 0 1 0 0 0 0
1007 2 49.87097534059998 36.7448668435 5.359216120000001 0 0 1 0 0 0 0
1806 2 53.3499610846 35.00270638320001 5.3550036568 0 0 1 0 0 0 0
1027 2 56.839517234799985 36.7448668435 5.359216120000001 0 0 1 0 0 0 0
1826 2 60.31851134109999 35.00270638320001 5.3550036568 0 0 1 0 0 0 0
1047 2 63.808067491199964 36.7448668435 5.359216120000001 0 0 1 0 0 0 0
1846 2 67.28706159749997 35.00270638320001 5.3550036568 0 0 1 0 0 0 0
1067 2 70.77661774759994 36.7448668435 5.359216120000001 0 0 1 0 0 0 0
1866 2 74.25560349169999 35.00270638320001 5.3550036568 0 0 1 0 0 0 0
1087 2 77.74516800409994 36.7448668435 5.359216120000001 0 0 1 0 0 0 0
1886 2 81.22415374809997 35.00270638320001 5.3550036568 0 0 1 0 0 0 0
1107 2 84.7137182605 36.7448668435 5.359216120000001 0 0 1 0 0 0 0
1906 2 88.19270400449996 35.00270638320001 5.3550036568 0 0 1 0 0 0 0
1127 2 91.6822601547 36.7448668435 5.359216120000001 0 0 1 0 0 0 0
1926 2 95.16125426099994 35.00270638320001 5.3550036568 0 0 1 0 0 0 0
1147 2 98.6508104111 36.7448668435 5.359216120000001 0 0 1 0 0 0 0
1946 2 102.12980451739996 35.00270638320001 5.3550036568 0 0 1 0 0 0 0
1167 2 105.61936066759998 36.7448668435 5.359216120000001 0 0 1 0 0 0 0
1966 2 109.0983464116 35.00270638320001 5.3550036568 0 0 1 0 0 0 0
1187 2 112.58791092399996 36.7448668435 5.359216120000001 0 0 1 0 0 0 0
1986 2 116.066896668 35.00270638320001 5.3550036568 0 0 1 0 0 0 0
2807 2 -16.096502871600016 38.8885898939 5.3483793632 0 0 1 0 0 0 0
2827 2 -9.127954148200017 38.8885898939 5.3483793632 0 0 1 0 0 0 0
2847 2 -2.1594050068000143 38.8885898939 5.3483793632 0 0 1 0 0 0 0
2867 2 4.809143159099978 38.8885898939 5.3483793632 0 0 1 0 0 0 0
2887 2 11.77769132499997 38.8885898939 5.3483793632 0 0 1 0 0 0 0
2907 2 18.746241581399985 38.8885898939 5.3483793632 0 0 1 0 0 0 0
2927 2 25.714787656699976 38.8885898939 5.3483793632 0 0 1 0 0 0 0
2947 2 32.68333791319999 38.8885898939 5.3483793632 0 0 1 0 0 0 0
2967 2 39.651883988499996 38.8885898939 5.3483793632 0 0 1 0 0 0 0
2987 2 46.62043424489994 38.8885898939 5.3483793632 0 0 1 0 0 0 0
3007 2 53.588980320199994 38.8885898939 5.3483793632 0 0 1 0 0 0 0
3027 2 60.557530576699975 38.8885898939 5.3483793632 0 0 1 0 0 0 0
3047 2 67.52608083309997 38.8885898939 5.3483793632 0 0 1 0 0 0 0
3067 2 74.49463108949999 38.8885898939 5.3483793632 0 0 1 0 0 0 0
3087 2 81.463181346 38.8885898939 5.3483793632 0 0 1 0 0 0 0
3107 2 88.43172324009998 38.8885898939 5.3483793632 0 0 1 0 0 0 0
3127 2 95.4002734966 38.8885898939 5.3483793632 0 0 1 0 0 0 0
3147 2 102.368823753 38.8885898939 5.3483793632 0 0 1 0 0 0 0
3167 2 109.3373740094 38.8885898939 5.3483793632 0 0 1 0 0 0 0
3187 2 116.3059242659 38.8885898939 5.3483793632 0 0 1 0 0 0 0
808 2 -23.2987893579 42.7798079291 5.359216120000001 0 0 1 0 0 0 0
1607 2 -19.8198011052 41.0376474689 5.3550036568 0 0 1 0 0 0 0
828 2 -16.330240913300003 42.7798079291 5.359216120000001 0 0 1 0 0 0 0
1627 2 -12.8512525212 41.0376474689 5.3550036568 0 0 1 0 0 0 0
848 2 -9.361692189900007 42.7798079291 5.359216120000001 0 0 1 0 0 0 0
1647 2 -5.8827043553 41.0376474689 5.3550036568 0 0 1 0 0 0 0
868 2 -2.393144024000005 42.7798079291 5.359216120000001 0 0 1 0 0 0 0
1667 2 1.0858438106000001 41.0376474689 5.3550036568 0 0 1 0 0 0 0
888 2 4.575404141799993 42.7798079291 5.359216120000001 0 0 1 0 0 0 0
1687 2 8.054394067 41.0376474689 5.3550036568 0 0 1 0 0 0 0
908 2 11.5439523077 42.7798079291 5.359216120000001 0 0 1 0 0 0 0
1707 2 15.022942232899997 41.0376474689 5.3550036568 0 0 1 0 0 0 0
928 2 18.512502564200002 42.7798079291 5.359216120000001 0 0 1 0 0 0 0
1727 2 21.991488308199994 41.0376474689 5.3550036568 0 0 1 0 0 0 0
948 2 25.481052820599995 42.7798079291 5.359216120000001 0 0 1 0 0 0 0
1747 2 28.96003856460001 41.0376474689 5.3550036568 0 0 1 0 0 0 0
968 2 32.449598895899996 42.7798079291 5.359216120000001 0 0 1 0 0 0 0
1767 2 35.92858882110001 41.0376474689 5.3550036568 0 0 1 0 0 0 0
988 2 39.4181491523 42.7798079291 5.359216120000001 0 0 1 0 0 0 0
1787 2 42.89713489639999 41.0376474689 5.3550036568 0 0 1 0 0 0 0
1008 2 46.3866994088 42.7798079291 5.359216120000001 0 0 1 0 0 0 0
1807 2 49.8656851528 41.0376474689 5.3550036568 0 0 1 0 0 0 0
1028 2 53.355241302899984 42.7798079291 5.359216120000001 0 0 1 0 0 0 0
1827 2 56.83423540919999 41.0376474689 5.3550036568 0 0 1 0 0 0 0
1048 2 60.32379155939998 42.7798079291 5.359216120000001 0 0 1 0 0 0 0
1847 2 63.80278566569996 41.0376474689 5.3550036568 0 0 1 0 0 0 0
1068 2 67.29234181579996 42.7798079291 5.359216120000001 0 0 1 0 0 0 0
1867 2 70.7713275598 41.0376474689 5.3550036568 0 0 1 0 0 0 0
1088 2 74.2608920723 42.7798079291 5.359216120000001 0 0 1 0 0 0 0
1887 2 77.73987781629998 41.0376474689 5.3550036568 0 0 1 0 0 0 0
1108 2 81.2294423287 42.7798079291 5.359216120000001 0 0 1 0 0 0 0
1907 2 84.7084280727 41.0376474689 5.3550036568 0 0 1 0 0 0 0
1128 2 88.1979842229 42.7798079291 5.359216120000001 0 0 1 0 0 0 0
1927 2 91.6769783292 41.0376474689 5.3550036568 0 0 1 0 0 0 0
1148 2 95.1665344793 42.7798079291 5.359216120000001 0 0 1 0 0 0 0
1947 2 98.6455285856 41.0376474689 5.3550036568 0 0 1 0 0 0 0
1168 2 102.1350847357 42.7798079291 5.359216120000001 0 0 1 0 0 0 0
1967 2 105.61407047979999 41.0376474689 5.3550036568 0 0 1 0 0 0 0
1188 2 109.1036349922 42.7798079291 5.359216120000001 0 0 1 0 0 0 0
1987 2 112.58262073619998 41.0376474689 5.3550036568 0 0 1 0 0 0 0
2808 2 -19.5807788034 44.9235309796 5.3483793632 0 0 1 0 0 0 0
2828 2 -12.612230080100007 44.9235309796 5.3483793632 0 0 1 0 0 0 0
2848 2 -5.6436809386000135 44.9235309796 5.3483793632 0 0 1 0 0 0 0
2868 2 1.3248672272999968 44.9235309796 5.3483793632 0 0 1 0 0 0 0