3200
Lattice="139.3709716797 0.0 0.0 -69.6855019119 120.6987927455 0.0 0.0 0.0 20.7558555603" Properties=species:S:1:pos:R:3:magnetic_moment:R:3:forces:R:3:effective_field:R:3 Config_type=Converted_from_Lammps-data energy=-12826.720703125 pbc="T T T"
I        1.09113708       0.53522914       5.35921612       0.00000000       0.00000000       0.00000000       0.00068676       0.00163857      -0.00925595       0.00000000       0.00000000       0.00000000
I       -0.15397873       2.68056099       8.48223318       0.00000000       0.00000000       0.00000000       0.00166333      -0.00043774       0.00873764       0.00000000       0.00000000       0.00000000
Cr       5.81326000       0.66700615       6.91861872      -0.07800000      -0.14800000       2.99500000      -0.00045702       0.00026460      -0.00000266      -0.00712552      -0.01383770       0.27717870
I        6.81457013       2.68056099       8.48223318       0.00000000       0.00000000       0.00000000       0.00166317      -0.00043768       0.00873799       0.00000000       0.00000000       0.00000000
I        3.56880585       0.53061953       8.48885810       0.00000000       0.00000000       0.00000000      -0.00077856       0.00113254       0.00812484       0.00000000       0.00000000       0.00000000
I        4.80914687       2.67895352       5.34837936       0.00000000       0.00000000       0.00000000      -0.00139016       0.00010312      -0.00813120       0.00000000       0.00000000       0.00000000
I        8.05968552       0.53522914       5.35921612       0.00000000       0.00000000       0.00000000       0.00068663       0.00163878      -0.00925536       0.00000000       0.00000000       0.00000000
I       10.53735485       0.53061953       8.48885810       0.00000000       0.00000000       0.00000000      -0.00077681       0.00113373       0.00812499       0.00000000       0.00000000       0.00000000
I       11.77769559       2.67895352       5.34837936       0.00000000       0.00000000       0.00000000      -0.00138979       0.00010404      -0.00813038       0.00000000       0.00000000       0.00000000
Cr      12.78180817       0.66700615       6.91861872      -0.07800000      -0.14800000       2.99500000      -0.00045681       0.00026495       0.00000301      -0.00695292      -0.01364528       0.27719438
I       15.02823425       0.53522914       5.35921612       0.00000000       0.00000000       0.00000000       0.00068761       0.00163829      -0.00925623       0.00000000       0.00000000       0.00000000
I       13.78311830       2.68056099       8.48223318       0.00000000       0.00000000       0.00000000       0.00166268      -0.00043908       0.00873694       0.00000000       0.00000000       0.00000000
Cr      19.75035633       0.66700615       6.91861872      -0.07800000      -0.14800000       2.99500000      -0.00044364       0.00027146       0.00000026      -0.00708409      -0.01372851       0.27718955
I       20.75166744       2.68056099       8.48223318       0.00000000       0.00000000       0.00000000       0.00166433      -0.00043996       0.00873430       0.00000000       0.00000000       0.00000000
I       17.50590302       0.53061953       8.48885810       0.00000000       0.00000000       0.00000000      -0.00077702       0.00113346       0.00812485       0.00000000       0.00000000       0.00000000
I       18.74624473       2.67895352       5.34837936       0.00000000       0.00000000       0.00000000      -0.00139101       0.00010177      -0.00812773       0.00000000       0.00000000       0.00000000
I       21.99678241       0.53522914       5.35921612       0.00000000       0.00000000       0.00000000       0.00068612       0.00164031      -0.00925282       0.00000000       0.00000000       0.00000000
I       24.47445119       0.53061953       8.48885810       0.00000000       0.00000000       0.00000000      -0.00077730       0.00113345       0.00812045       0.00000000       0.00000000       0.00000000
I       25.71479290       2.67895352       5.34837936       0.00000000       0.00000000       0.00000000      -0.00139064       0.00010202      -0.00812726       0.00000000       0.00000000       0.00000000
Cr      26.71890659       0.66700615       6.91861872      -0.07800000      -0.14800000       2.99500000      -0.00045694       0.00026364      -0.00000193      -0.00715443      -0.01353454       0.27719972
I       28.96533058       0.53522914       5.35921612       0.00000000       0.00000000       0.00000000       0.00068516       0.00164104      -0.00925269       0.00000000       0.00000000       0.00000000
I       27.72021574       2.68056099       8.48223318       0.00000000       0.00000000       0.00000000       0.00166446      -0.00043953       0.00873474       0.00000000       0.00000000       0.00000000
Cr      33.68745476       0.66700615       6.91861872      -0.07800000      -0.14800000       2.99500000      -0.00045716       0.00026451       0.00000297      -0.00729066      -0.01401844       0.27717048
I       34.68876586       2.68056099       8.48223318       0.00000000       0.00000000       0.00000000       0.00166389      -0.00043935       0.00873418       0.00000000       0.00000000       0.00000000
I       31.44299935       0.53061953       8.48885810       0.00000000       0.00000000       0.00000000      -0.00077648       0.00113469       0.00812149       0.00000000       0.00000000       0.00000000
I       32.68334106       2.67895352       5.34837936       0.00000000       0.00000000       0.00000000      -0.00139075       0.00010347      -0.00812757       0.00000000       0.00000000       0.00000000
I       35.93387874       0.53522914       5.35921612       0.00000000       0.00000000       0.00000000       0.00068679       0.00164009      -0.00925361       0.00000000       0.00000000       0.00000000
I       38.41154961       0.53061953       8.48885810       0.00000000       0.00000000       0.00000000      -0.00077700       0.00113417       0.00812142       0.00000000       0.00000000       0.00000000
Cr      40.65600292       0.66700615       6.91861872      -0.07800000      -0.14800000       2.99500000      -0.00045714       0.00026625       0.00000041      -0.00712645      -0.01371477       0.27719152
I       42.90242900       0.53522914       5.35921612       0.00000000       0.00000000       0.00000000       0.00068626       0.00164029      -0.00925287       0.00000000       0.00000000       0.00000000
I       41.65731208       2.68056099       8.48223318       0.00000000       0.00000000       0.00000000       0.00166395      -0.00043990       0.00873324       0.00000000       0.00000000       0.00000000
I       39.65189132       2.67895352       5.34837936       0.00000000       0.00000000       0.00000000      -0.00139058       0.00010155      -0.00812691       0.00000000       0.00000000       0.00000000
Cr      47.62455318       0.66700615       6.91861872      -0.07800000      -0.14800000       2.99500000      -0.00047063       0.00025814       0.00000087      -0.00750023      -0.01379353       0.27717298
I       45.38009568       0.53061953       8.48885810       0.00000000       0.00000000       0.00000000      -0.00077609       0.00113533       0.00812290       0.00000000       0.00000000       0.00000000
I       46.62043739       2.67895352       5.34837936       0.00000000       0.00000000       0.00000000      -0.00138982       0.00010308      -0.00813089       0.00000000       0.00000000       0.00000000
I       49.87097926       0.53522914       5.35921612       0.00000000       0.00000000       0.00000000       0.00068706       0.00163863      -0.00925602       0.00000000       0.00000000       0.00000000
I       48.62586219       2.68056099       8.48223318       0.00000000       0.00000000       0.00000000       0.00166250      -0.00043815       0.00873700       0.00000000       0.00000000       0.00000000
I       52.34864594       0.53061953       8.48885810       0.00000000       0.00000000       0.00000000      -0.00077773       0.00113286       0.00812480       0.00000000       0.00000000       0.00000000
Cr      54.59309925       0.66700615       6.91861872      -0.07800000      -0.14800000       2.99500000      -0.00045690       0.00026561      -0.00000086      -0.00735508      -0.01353310       0.27718860
I       56.83952533       0.53522914       5.35921612       0.00000000       0.00000000       0.00000000       0.00068694       0.00163890      -0.00925600       0.00000000       0.00000000       0.00000000
I       55.59440841       2.68056099       8.48223318       0.00000000       0.00000000       0.00000000       0.00166288      -0.00043855       0.00873790       0.00000000       0.00000000       0.00000000
I       53.58898765       2.67895352       5.34837936       0.00000000       0.00000000       0.00000000      -0.00138952       0.00010385      -0.00812941       0.00000000       0.00000000       0.00000000
Cr      61.56164951       0.66700615       6.91861872      -0.07800000      -0.14800000       2.99500000      -0.00045759       0.00026179      -0.00000318      -0.00725341      -0.01358108       0.27718884
I       59.31719620       0.53061953       8.48885810       0.00000000       0.00000000       0.00000000      -0.00077780       0.00113340       0.00812540       0.00000000       0.00000000       0.00000000
I       60.55753373       2.67895352       5.34837936       0.00000000       0.00000000       0.00000000      -0.00138955       0.00010330      -0.00813051       0.00000000       0.00000000       0.00000000
I       63.80807559       0.53522914       5.35921612       0.00000000       0.00000000       0.00000000       0.00068622       0.00163892      -0.00925519       0.00000000       0.00000000       0.00000000
I       62.56295866       2.68056099       8.48223318       0.00000000       0.00000000       0.00000000       0.00166369      -0.00043731       0.00873879       0.00000000       0.00000000       0.00000000
I       66.28574227       0.53061953       8.48885810       0.00000000       0.00000000       0.00000000      -0.00077822       0.00113251       0.00812446       0.00000000       0.00000000       0.00000000
Cr      68.53019559       0.66700615       6.91861872      -0.07800000      -0.14800000       2.99500000      -0.00045696       0.00026415       0.00000122      -0.00724112      -0.01365398       0.27718571
I       70.77662584       0.53522914       5.35921612       0.00000000       0.00000000       0.00000000       0.00068624       0.00163888      -0.00925653       0.00000000       0.00000000       0.00000000
I       69.53150474       2.68056099       8.48223318       0.00000000       0.00000000       0.00000000       0.00166342      -0.00043800       0.00873705       0.00000000       0.00000000       0.00000000
I       67.52608398       2.67895352       5.34837936       0.00000000       0.00000000       0.00000000      -0.00139007       0.00010334      -0.00813112       0.00000000       0.00000000       0.00000000
Cr      75.49874166       0.66700615       6.91861872      -0.07800000      -0.14800000       2.99500000      -0.00045676       0.00026407      -0.00000046      -0.00715706      -0.01387505       0.27717632
I       73.25428835       0.53061953       8.48885810       0.00000000       0.00000000       0.00000000      -0.00077758       0.00113294       0.00812520       0.00000000       0.00000000       0.00000000
I       74.49463006       2.67895352       5.34837936       0.00000000       0.00000000       0.00000000      -0.00138892       0.00010476      -0.00812980       0.00000000       0.00000000       0.00000000
I       77.74516774       0.53522914       5.35921612       0.00000000       0.00000000       0.00000000       0.00068733       0.00163849      -0.00925569       0.00000000       0.00000000       0.00000000
I       76.50005500       2.68056099       8.48223318       0.00000000       0.00000000       0.00000000       0.00166330      -0.00043806       0.00873814       0.00000000       0.00000000       0.00000000
I       80.22283860       0.53061953       8.48885810       0.00000000       0.00000000       0.00000000      -0.00077725       0.00113405       0.00812615       0.00000000       0.00000000       0.00000000
Cr      82.46729192       0.66700615       6.91861872      -0.07800000      -0.14800000       2.99500000      -0.00045702       0.00026372       0.00000083      -0.00711498      -0.01358291       0.27719209
I       84.71371800       0.53522914       5.35921612       0.00000000       0.00000000       0.00000000       0.00068875       0.00163821      -0.00925599       0.00000000       0.00000000       0.00000000
I       83.46860511       2.68056099       8.48223318       0.00000000       0.00000000       0.00000000       0.00166232      -0.00043724       0.00873623       0.00000000       0.00000000       0.00000000
I       81.46318031       2.67895352       5.34837936       0.00000000       0.00000000       0.00000000      -0.00138966       0.00010449      -0.00813027       0.00000000       0.00000000       0.00000000
I       87.19138886       0.53061953       8.48885810       0.00000000       0.00000000       0.00000000      -0.00077768       0.00113283       0.00812414       0.00000000       0.00000000       0.00000000
I       88.43173057       2.67895352       5.34837936       0.00000000       0.00000000       0.00000000      -0.00139016       0.00010484      -0.00813041       0.00000000       0.00000000       0.00000000
Cr      89.43584217       0.66700615       6.91861872      -0.07800000      -0.14800000       2.99500000      -0.00045714       0.00026399       0.00000248      -0.00711360      -0.01369916       0.27718601
I       91.68226825       0.53522914       5.35921612       0.00000000       0.00000000       0.00000000       0.00068808       0.00163916      -0.00925653       0.00000000       0.00000000       0.00000000
I       90.43715537       2.68056099       8.48223318       0.00000000       0.00000000       0.00000000       0.00166246      -0.00043766       0.00873690       0.00000000       0.00000000       0.00000000
Cr      96.40439243       0.66700615       6.91861872      -0.07800000      -0.14800000       2.99500000      -0.00045828       0.00026362      -0.00000225      -0.00724354      -0.01362182       0.27718669
I       97.40569740       2.68056099       8.48223318       0.00000000       0.00000000       0.00000000       0.00166351      -0.00043715       0.00873796       0.00000000       0.00000000       0.00000000
I       94.15993912       0.53061953       8.48885810       0.00000000       0.00000000       0.00000000      -0.00077821       0.00113385       0.00812578       0.00000000       0.00000000       0.00000000
I       95.40028083       2.67895352       5.34837936       0.00000000       0.00000000       0.00000000      -0.00139024       0.00010334      -0.00813002       0.00000000       0.00000000       0.00000000
I       98.65081851       0.53522914       5.35921612       0.00000000       0.00000000       0.00000000       0.00068803       0.00163811      -0.00925559       0.00000000       0.00000000       0.00000000
I      101.12848937       0.53061953       8.48885810       0.00000000       0.00000000       0.00000000      -0.00077769       0.00113297       0.00812533       0.00000000       0.00000000       0.00000000
I      102.36883108       2.67895352       5.34837936       0.00000000       0.00000000       0.00000000      -0.00138977       0.00010420      -0.00813062       0.00000000       0.00000000       0.00000000
Cr     103.37294269       0.66700615       6.91861872      -0.07800000      -0.14800000       2.99500000      -0.00045625       0.00026522       0.00000080      -0.00708339      -0.01371314       0.27718621
I      105.61936876       0.53522914       5.35921612       0.00000000       0.00000000       0.00000000       0.00068689       0.00163844      -0.00925581       0.00000000       0.00000000       0.00000000
I      104.37424766       2.68056099       8.48223318       0.00000000       0.00000000       0.00000000       0.00166369      -0.00043850       0.00873805       0.00000000       0.00000000       0.00000000
Cr     110.34148458       0.66700615       6.91861872      -0.07800000      -0.14800000       2.99500000      -0.00045673       0.00026384      -0.00000027      -0.00713745      -0.01364142       0.27718788
I      111.34279792       2.68056099       8.48223318       0.00000000       0.00000000       0.00000000       0.00166316      -0.00043774       0.00873745       0.00000000       0.00000000       0.00000000
I      108.09703127       0.53061953       8.48885810       0.00000000       0.00000000       0.00000000      -0.00077766       0.00113279       0.00812501       0.00000000       0.00000000       0.00000000
I      109.33737298       2.67895352       5.34837936       0.00000000       0.00000000       0.00000000      -0.00138887       0.00010484      -0.00812959       0.00000000       0.00000000       0.00000000
I      112.58791066       0.53522914       5.35921612       0.00000000       0.00000000       0.00000000       0.00068741       0.00163809      -0.00925499       0.00000000       0.00000000       0.00000000
I      115.06558152       0.53061953       8.48885810       0.00000000       0.00000000       0.00000000      -0.00077756       0.00113327       0.00812532       0.00000000       0.00000000       0.00000000
I      116.30592323       2.67895352       5.34837936       0.00000000       0.00000000       0.00000000      -0.00138973       0.00010427      -0.00813022       0.00000000       0.00000000       0.00000000
Cr     117.31003484       0.66700615       6.91861872      -0.07800000      -0.14800000       2.99500000      -0.00045668       0.00026549       0.00000265      -0.00698183      -0.01364477       0.27719283
I      119.55646092       0.53522914       5.35921612       0.00000000       0.00000000       0.00000000       0.00068922       0.00163758      -0.00925556       0.00000000       0.00000000       0.00000000
I      118.31134803       2.68056099       8.48223318       0.00000000       0.00000000       0.00000000       0.00166230      -0.00043868       0.00873640       0.00000000       0.00000000       0.00000000
Cr     124.27858509       0.66700615       6.91861872      -0.07800000      -0.14800000       2.99500000      -0.00045645       0.00026346      -0.00000329      -0.00729401      -0.01351420       0.27719107
I      125.27989829       2.68056099       8.48223318       0.00000000       0.00000000       0.00000000       0.00166251      -0.00043633       0.00873704       0.00000000       0.00000000       0.00000000
I      122.03413178       0.53061953       8.48885810       0.00000000       0.00000000       0.00000000      -0.00077877       0.00113346       0.00812627       0.00000000       0.00000000       0.00000000
I      123.27447349       2.67895352       5.34837936       0.00000000       0.00000000       0.00000000      -0.00138985       0.00010336      -0.00812965       0.00000000       0.00000000       0.00000000
I      126.52501117       0.53522914       5.35921612       0.00000000       0.00000000       0.00000000       0.00068795       0.00163799      -0.00925429       0.00000000       0.00000000       0.00000000
I      129.00268204       0.53061953       8.48885810       0.00000000       0.00000000       0.00000000      -0.00077967       0.00113306       0.00812634       0.00000000       0.00000000       0.00000000
I      130.24302375       2.67895352       5.34837936       0.00000000       0.00000000       0.00000000      -0.00139092       0.00010434      -0.00813066       0.00000000       0.00000000       0.00000000
Cr     131.24713535       0.66700615       6.91861872      -0.07800000      -0.14800000       2.99500000      -0.00045690       0.00026194      -0.00000269      -0.00722609      -0.01377703       0.27717853
I      133.49356143       0.53522914       5.35921612       0.00000000       0.00000000       0.00000000       0.00068746       0.00163860      -0.00925531       0.00000000       0.00000000       0.00000000
I      132.24844032       2.68056099       8.48223318       0.00000000       0.00000000       0.00000000       0.00166415      -0.00043645       0.00873864       0.00000000       0.00000000       0.00000000
Cr     138.21568561       0.66700615       6.91861872      -0.07800000      -0.14800000       2.99500000      -0.00045625       0.00026462      -0.00000135      -0.00737992      -0.01367821       0.27718017
I      135.97123229       0.53061953       8.48885810       0.00000000       0.00000000       0.00000000      -0.00077978       0.00113319       0.00812629       0.00000000       0.00000000       0.00000000
I      137.21157400       2.67895352       5.34837936       0.00000000       0.00000000       0.00000000      -0.00139110       0.00010309      -0.00813080       0.00000000       0.00000000       0.00000000
I       -2.39313795       6.57016866       5.35921612       0.00000000       0.00000000       0.00000000       0.00068791       0.00163816      -0.00925636       0.00000000       0.00000000       0.00000000
I       -3.63825376       8.71550050       8.48223318       0.00000000       0.00000000       0.00000000       0.00166362      -0.00043733       0.00873796       0.00000000       0.00000000       0.00000000
Cr       2.32898491       6.70194579       6.91861872      -0.07800000      -0.14800000       2.99500000      -0.00045735       0.00026349      -0.00000156      -0.00717805      -0.01360112       0.27718976
Cr      -1.15740756       4.69152248       6.91861872      -0.07700000      -0.14500000       2.99600000       0.00015290      -0.00008595       0.00000079      -0.00721162      -0.01345598       0.27739483
I        1.08585030       4.82800820       5.35500366       0.00000000       0.00000000       0.00000000       0.00120195      -0.00120192      -0.00873180       0.00000000       0.00000000       0.00000000
I        0.08453062       6.56555941       8.48885810       0.00000000       0.00000000       0.00000000      -0.00077784       0.00113236       0.00812436       0.00000000       0.00000000       0.00000000
I        1.32487156       8.71389352       5.34837936       0.00000000       0.00000000       0.00000000      -0.00138964       0.00010401      -0.00813037       0.00000000       0.00000000       0.00000000
Cr       5.81114089       4.69152248       6.91861872      -0.07700000      -0.14500000       2.99600000       0.00015292      -0.00008490       0.00000209      -0.00728707      -0.01349532       0.27739108
I        4.57541050       6.57016866       5.35921612       0.00000000       0.00000000       0.00000000       0.00068706       0.00163837      -0.00925574       0.00000000       0.00000000       0.00000000
I        3.56632064       4.82237253       8.47802132       0.00000000       0.00000000       0.00000000      -0.00107884      -0.00141158       0.00925677       0.00000000       0.00000000       0.00000000
I        3.33029511       8.71550050       8.48223318       0.00000000       0.00000000       0.00000000       0.00166280      -0.00043699       0.00873708       0.00000000       0.00000000       0.00000000
I        7.05307962       6.56555941       8.48885810       0.00000000       0.00000000       0.00000000      -0.00077801       0.00113182       0.00812347       0.00000000       0.00000000       0.00000000
Cr       9.29753307       6.70194579       6.91861872      -0.07800000      -0.14800000       2.99500000      -0.00045787       0.00026344       0.00000030      -0.00710007      -0.01359431       0.27719262
I       11.54395922       6.57016866       5.35921612       0.00000000       0.00000000       0.00000000       0.00068775       0.00163821      -0.00925558       0.00000000       0.00000000       0.00000000
I       10.53486881       4.82237253       8.47802132       0.00000000       0.00000000       0.00000000      -0.00107951      -0.00141123       0.00925685       0.00000000       0.00000000       0.00000000
I        8.05439889       4.82800820       5.35500366       0.00000000       0.00000000       0.00000000       0.00120176      -0.00120199      -0.00873189       0.00000000       0.00000000       0.00000000
I       10.29884327       8.71550050       8.48223318       0.00000000       0.00000000       0.00000000       0.00166273      -0.00043787       0.00873683       0.00000000       0.00000000       0.00000000
I        8.29342028       8.71389352       5.34837936       0.00000000       0.00000000       0.00000000      -0.00138963       0.00010368      -0.00813020       0.00000000       0.00000000       0.00000000
Cr      16.26608124       6.70194579       6.91861872      -0.07800000      -0.14800000       2.99500000      -0.00044349       0.00027166       0.00000186      -0.00714056      -0.01389275       0.27717981
Cr      12.77969003       4.69152248       6.91861872      -0.07700000      -0.14500000       2.99600000       0.00015119      -0.00008717      -0.00000231      -0.00724908      -0.01347390       0.27739269
I       15.02294705       4.82800820       5.35500366       0.00000000       0.00000000       0.00000000       0.00120127      -0.00120261      -0.00873251       0.00000000       0.00000000       0.00000000
I       14.02162778       6.56555941       8.48885810       0.00000000       0.00000000       0.00000000      -0.00077658       0.00113327       0.00812450       0.00000000       0.00000000       0.00000000
I       15.26196943       8.71389352       5.34837936       0.00000000       0.00000000       0.00000000      -0.00139083       0.00010317      -0.00812753       0.00000000       0.00000000       0.00000000
Cr      19.74823722       4.69152248       6.91861872      -0.07700000      -0.14500000       2.99500000       0.00015166      -0.00008570       0.00000263      -0.00727801      -0.01328821       0.27719557
I       18.51250739       6.57016866       5.35921612       0.00000000       0.00000000       0.00000000       0.00068634       0.00164048      -0.00925326       0.00000000       0.00000000       0.00000000
I       17.50341795       4.82237253       8.47802132       0.00000000       0.00000000       0.00000000      -0.00108146      -0.00141144       0.00925361       0.00000000       0.00000000       0.00000000
I       17.26739241       8.71550050       8.48223318       0.00000000       0.00000000       0.00000000       0.00166388      -0.00043905       0.00873361       0.00000000       0.00000000       0.00000000
I       20.99017595       6.56555941       8.48885810       0.00000000       0.00000000       0.00000000      -0.00077710       0.00113344       0.00812058       0.00000000       0.00000000       0.00000000
Cr      23.23463150       6.70194579       6.91861872      -0.07800000      -0.14800000       2.99500000      -0.00045767       0.00026231      -0.00000213      -0.00711041      -0.01379327       0.27718771
I       25.48105555       6.57016866       5.35921612       0.00000000       0.00000000       0.00000000       0.00068581       0.00164057      -0.00925273       0.00000000       0.00000000       0.00000000
I       24.47196612       4.82237253       8.47802132       0.00000000       0.00000000       0.00000000      -0.00108049      -0.00141139       0.00925291       0.00000000       0.00000000       0.00000000
I       21.99149522       4.82800820       5.35500366       0.00000000       0.00000000       0.00000000       0.00120512      -0.00120176      -0.00872937       0.00000000       0.00000000       0.00000000
I       24.23594072       8.71550050       8.48223318       0.00000000       0.00000000       0.00000000       0.00166471      -0.00043917       0.00873510       0.00000000       0.00000000       0.00000000
I       22.23051759       8.71389352       5.34837936       0.00000000       0.00000000       0.00000000      -0.00139073       0.00010195      -0.00812721       0.00000000       0.00000000       0.00000000
Cr      30.20317966       6.70194579       6.91861872      -0.07800000      -0.14800000       2.99500000      -0.00045668       0.00026439      -0.00000086      -0.00723184      -0.01369851       0.27718908
Cr      26.71678748       4.69152248       6.91861872      -0.07700000      -0.14500000       2.99500000       0.00015162      -0.00008564       0.00000277      -0.00730345      -0.01355913       0.27718300
I       28.96004548       4.82800820       5.35500366       0.00000000       0.00000000       0.00000000       0.00120380      -0.00120293      -0.00872938       0.00000000       0.00000000       0.00000000
I       27.95872412       6.56555941       8.48885810       0.00000000       0.00000000       0.00000000      -0.00077772       0.00113294       0.00812050       0.00000000       0.00000000       0.00000000
I       29.19906576       8.71389352       5.34837936       0.00000000       0.00000000       0.00000000      -0.00139048       0.00010236      -0.00812678       0.00000000       0.00000000       0.00000000
Cr      33.68533564       4.69152248       6.91861872      -0.07700000      -0.14500000       2.99500000       0.00015128      -0.00008770      -0.00000009      -0.00707845      -0.01341828       0.27719599
I       32.44960372       6.57016866       5.35921612       0.00000000       0.00000000       0.00000000       0.00068610       0.00164049      -0.00925248       0.00000000       0.00000000       0.00000000
I       31.44051428       4.82237253       8.47802132       0.00000000       0.00000000       0.00000000      -0.00108084      -0.00141128       0.00925348       0.00000000       0.00000000       0.00000000
I       31.20449084       8.71550050       8.48223318       0.00000000       0.00000000       0.00000000       0.00166431      -0.00044047       0.00873490       0.00000000       0.00000000       0.00000000